 Entering Gaussian System, Link 0=g09
 Initial command:
 /usr/local/g09/l1.exe /mnt/f/scratch/Gau-3013.inp -scrdir=/mnt/f/scratch/
 Entering Link 1 = /usr/local/g09/l1.exe PID=      3014.
  
 Copyright (c) 1988,1990,1992,1993,1995,1998,2003,2009, Gaussian, Inc.
                  All Rights Reserved.
  
 This is part of the Gaussian(R) 09 program.  It is based on
 the Gaussian(R) 03 system (copyright 2003, Gaussian, Inc.),
 the Gaussian(R) 98 system (copyright 1998, Gaussian, Inc.),
 the Gaussian(R) 94 system (copyright 1995, Gaussian, Inc.),
 the Gaussian 92(TM) system (copyright 1992, Gaussian, Inc.),
 the Gaussian 90(TM) system (copyright 1990, Gaussian, Inc.),
 the Gaussian 88(TM) system (copyright 1988, Gaussian, Inc.),
 the Gaussian 86(TM) system (copyright 1986, Carnegie Mellon
 University), and the Gaussian 82(TM) system (copyright 1983,
 Carnegie Mellon University). Gaussian is a federally registered
 trademark of Gaussian, Inc.
  
 This software contains proprietary and confidential information,
 including trade secrets, belonging to Gaussian, Inc.
  
 This software is provided under written license and may be
 used, copied, transmitted, or stored only in accord with that
 written license.
  
 The following legend is applicable only to US Government
 contracts under FAR:
  
                    RESTRICTED RIGHTS LEGEND
  
 Use, reproduction and disclosure by the US Government is
 subject to restrictions as set forth in subparagraphs (a)
 and (c) of the Commercial Computer Software - Restricted
 Rights clause in FAR 52.227-19.
  
 Gaussian, Inc.
 340 Quinnipiac St., Bldg. 40, Wallingford CT 06492
  
  
 ---------------------------------------------------------------
 Warning -- This program may not be used in any manner that
 competes with the business of Gaussian, Inc. or will provide
 assistance to any competitor of Gaussian, Inc.  The licensee
 of this program is prohibited from giving any competitor of
 Gaussian, Inc. access to this program.  By using this program,
 the user acknowledges that Gaussian, Inc. is engaged in the
 business of creating and licensing software in the field of
 computational chemistry and represents and warrants to the
 licensee that it is not a competitor of Gaussian, Inc. and that
 it will not use this program in any manner prohibited above.
 ---------------------------------------------------------------
  

 Cite this work as:
 Gaussian 09, Revision A.02,
 M. J. Frisch, G. W. Trucks, H. B. Schlegel, G. E. Scuseria, 
 M. A. Robb, J. R. Cheeseman, G. Scalmani, V. Barone, B. Mennucci, 
 G. A. Petersson, H. Nakatsuji, M. Caricato, X. Li, H. P. Hratchian, 
 A. F. Izmaylov, J. Bloino, G. Zheng, J. L. Sonnenberg, M. Hada, 
 M. Ehara, K. Toyota, R. Fukuda, J. Hasegawa, M. Ishida, T. Nakajima, 
 Y. Honda, O. Kitao, H. Nakai, T. Vreven, J. A. Montgomery, Jr., 
 J. E. Peralta, F. Ogliaro, M. Bearpark, J. J. Heyd, E. Brothers, 
 K. N. Kudin, V. N. Staroverov, R. Kobayashi, J. Normand, 
 K. Raghavachari, A. Rendell, J. C. Burant, S. S. Iyengar, J. Tomasi, 
 M. Cossi, N. Rega, J. M. Millam, M. Klene, J. E. Knox, J. B. Cross, 
 V. Bakken, C. Adamo, J. Jaramillo, R. Gomperts, R. E. Stratmann, 
 O. Yazyev, A. J. Austin, R. Cammi, C. Pomelli, J. W. Ochterski, 
 R. L. Martin, K. Morokuma, V. G. Zakrzewski, G. A. Voth, 
 P. Salvador, J. J. Dannenberg, S. Dapprich, A. D. Daniels, 
 O. Farkas, J. B. Foresman, J. V. Ortiz, J. Cioslowski, 
 and D. J. Fox, Gaussian, Inc., Wallingford CT, 2009.
 
 ******************************************
 Gaussian 09:  AM64L-G09RevA.02 11-Jun-2009
                25-Nov-2019 
 ******************************************
 %NProcShared=8
 Will use up to    8 processors via shared memory.
 --------------------------------------------------------------------
 #MP2/6-311++G(d,p) NoSymmetry Prop=(read, potential) density=current
 --------------------------------------------------------------------
 1/30=1,38=1/1;
 2/12=2,15=1,17=6,18=5,40=1/2;
 3/5=4,6=6,7=1111,11=9,16=1,25=1,30=1,71=1/1,2,3;
 4//1;
 5/5=2,38=5/2;
 8/6=4,10=2/1;
 9/15=1,16=-3/6;
 10/5=1,13=10,31=1/2;
 6/7=2,8=2,9=2,10=2,14=3,15=1,22=-1/1,2;
 99/5=1,9=1/99;
 -------------
 gdb_000214_ep
 -------------
 Symbolic Z-matrix:
 Charge =  0 Multiplicity = 1
 C                     1.3941   -0.1164    0. 
 C                     0.7978    1.1491    0. 
 C                    -0.5962    1.2654    0. 
 C                    -1.3941    0.1164    0. 
 C                    -0.7978   -1.1491    0. 
 C                     0.5962   -1.2654    0. 
 H                     2.4728   -0.2065    0. 
 H                     1.4151    2.0383    0. 
 H                    -1.0576    2.2446    0. 
 H                    -2.4728    0.2065    0. 
 H                    -1.4151   -2.0383    0. 
 H                     1.0576   -2.2446    0. 
 
                          Input orientation:                          
 ---------------------------------------------------------------------
 Center     Atomic      Atomic             Coordinates (Angstroms)
 Number     Number       Type             X           Y           Z
 ---------------------------------------------------------------------
      1          6           0        1.394100   -0.116400    0.000000
      2          6           0        0.797800    1.149100    0.000000
      3          6           0       -0.596200    1.265400    0.000000
      4          6           0       -1.394100    0.116400    0.000000
      5          6           0       -0.797800   -1.149100    0.000000
      6          6           0        0.596200   -1.265400    0.000000
      7          1           0        2.472800   -0.206500    0.000000
      8          1           0        1.415100    2.038300    0.000000
      9          1           0       -1.057600    2.244600    0.000000
     10          1           0       -2.472800    0.206500    0.000000
     11          1           0       -1.415100   -2.038300    0.000000
     12          1           0        1.057600   -2.244600    0.000000
 ---------------------------------------------------------------------
                    Distance matrix (angstroms):
                    1          2          3          4          5
     1  C    0.000000
     2  C    1.398951   0.000000
     3  C    2.422946   1.398843   0.000000
     4  C    2.797902   2.422993   1.398873   0.000000
     5  C    2.422993   2.797796   2.422902   1.398951   0.000000
     6  C    1.398873   2.422902   2.797636   2.422946   1.398843
     7  H    1.082456   2.154826   3.403711   3.880358   3.403721
     8  H    2.154802   1.082468   2.154693   3.403719   3.880264
     9  H    3.403697   2.154676   1.082461   2.154639   3.403630
    10  H    3.880358   3.403721   2.154738   1.082456   2.154826
    11  H    3.403719   3.880264   3.403679   2.154802   1.082468
    12  H    2.154639   3.403630   3.880097   3.403697   2.154676
                    6          7          8          9         10
     6  C    0.000000
     7  H    2.154738   0.000000
     8  H    3.403679   2.481503   0.000000
     9  H    3.880097   4.297862   2.481291   0.000000
    10  H    3.403711   4.962815   4.297820   2.481258   0.000000
    11  H    2.154693   4.297820   4.962731   4.297795   2.481503
    12  H    1.082461   2.481258   4.297795   4.962559   4.297862
                   11         12
    11  H    0.000000
    12  H    2.481291   0.000000
 Symmetry turned off by external request.
 Stoichiometry    C6H6
 Framework group  C2H[SGH(C6H6)]
 Deg. of freedom    11
 Full point group                 C2H     NOp   4
 Rotational constants (GHZ):      5.6745459      5.6741382      2.8371710
 Standard basis: 6-311++G(d,p) (5D, 7F)
 Integral buffers will be    131072 words long.
 Raffenetti 1 integral format.
 Two-electron integral symmetry is turned off.
   174 basis functions,   270 primitive gaussians,   180 cartesian basis functions
    21 alpha electrons       21 beta electrons
       nuclear repulsion energy       203.0348356953 Hartrees.
 NAtoms=   12 NActive=   12 NUniq=   12 SFac= 7.50D-01 NAtFMM=   80 NAOKFM=F Big=F
 One-electron integrals computed using PRISM.
 NBasis=   174 RedAO= T  NBF=   174
 NBsUse=   174 1.00D-06 NBFU=   174
 Harris functional with IExCor=  205 diagonalized for initial guess.
 ExpMin= 3.60D-02 ExpMax= 4.56D+03 ExpMxC= 6.82D+02 IAcc=3 IRadAn=         0 AccDes= 0.00D+00
 HarFok:  IExCor=  205 AccDes= 0.00D+00 IRadAn=         0 IDoV= 1
 ScaDFX=  1.000000  1.000000  1.000000  1.000000
 FoFCou: FMM=F IPFlag=           0 FMFlag=      100000 FMFlg1=           0
         NFxFlg=           0 DoJE=T BraDBF=F KetDBF=T FulRan=T
         Omega=  0.000000  0.000000  1.000000  0.000000  0.000000 ICntrl=     500 IOpCl=  0
         NMat0=    1 NMatS0=    1 NMatT0=    0 NMatD0=    1 NMtDS0=    0 NMtDT0=    0
         I1Cent=           4 NGrid=           0.
 Symmetry not used in FoFCou.
 Requested convergence on RMS density matrix=1.00D-08 within 128 cycles.
 Requested convergence on MAX density matrix=1.00D-06.
 Requested convergence on             energy=1.00D-06.
 No special actions if energy rises.
 Initial convergence to 1.0D-05 achieved.  Increase integral accuracy.
 SCF Done:  E(RHF) =  -230.755683231     A.U. after   11 cycles
             Convg  =    0.1597D-08             -V/T =  2.0015
 ExpMin= 3.60D-02 ExpMax= 4.56D+03 ExpMxC= 6.82D+02 IAcc=3 IRadAn=         5 AccDes= 0.00D+00
 HarFok:  IExCor=  205 AccDes= 0.00D+00 IRadAn=         5 IDoV=-2
 ScaDFX=  1.000000  1.000000  1.000000  1.000000
 Range of M.O.s used for correlation:     7   174
 NBasis=   174 NAE=    21 NBE=    21 NFC=     6 NFV=     0
 NROrb=    168 NOA=    15 NOB=    15 NVA=   153 NVB=   153

 **** Warning!!: The largest alpha MO coefficient is  0.23140824D+03

 Disk-based method using ON**2 memory for 15 occupieds at a time.
 Estimated scratch disk usage=   177375908 words.
 Actual    scratch disk usage=   154206372 words.
 GetIJB would need an additional    18557835 words of memory to use all   8 processors.
 JobTyp=1 Pass  1:  I=   7 to  21 NPSUse=  5 ParTrn=T ParDer=T DoDerP=T.
 Spin components of T(2) and E(2):
     alpha-alpha T2 =       0.4244139862D-01 E2=     -0.1077574508D+00
     alpha-beta  T2 =       0.2232616611D+00 E2=     -0.6129766275D+00
     beta-beta   T2 =       0.4244139862D-01 E2=     -0.1077574508D+00
 ANorm=    0.1143741430D+01
 E2 =    -0.8284915291D+00 EUMP2 =    -0.23158417476044D+03
          Differentiating once with respect to electric field.
                with respect to dipole field.
          Electric field/nuclear overlap derivatives assumed to be zero.
          There are     1 degrees of freedom in the 1st order CPHF.  IDoFFX=0.
 LinEq1:  Iter=  0 NonCon=     1 RMS=3.41D-03 Max=7.32D-02
 AX will form     1 AO Fock derivatives at one time.
 LinEq1:  Iter=  1 NonCon=     1 RMS=8.40D-04 Max=1.52D-02
 LinEq1:  Iter=  2 NonCon=     1 RMS=2.34D-04 Max=5.09D-03
 LinEq1:  Iter=  3 NonCon=     1 RMS=4.89D-05 Max=8.56D-04
 LinEq1:  Iter=  4 NonCon=     1 RMS=6.98D-06 Max=9.99D-05
 LinEq1:  Iter=  5 NonCon=     1 RMS=6.40D-07 Max=8.77D-06
 LinEq1:  Iter=  6 NonCon=     1 RMS=5.66D-08 Max=1.07D-06
 LinEq1:  Iter=  7 NonCon=     1 RMS=5.25D-09 Max=5.47D-08
 LinEq1:  Iter=  8 NonCon=     1 RMS=1.83D-09 Max=2.53D-08
 LinEq1:  Iter=  9 NonCon=     1 RMS=2.47D-10 Max=3.50D-09
 LinEq1:  Iter= 10 NonCon=     0 RMS=1.70D-11 Max=2.10D-10
 Linear equations converged to 1.000D-10 1.000D-09 after    10 iterations.
 End of Minotr Frequency-dependent properties file   721 does not exist.
 End of Minotr Frequency-dependent properties file   722 does not exist.

 **********************************************************************

            Population analysis using the MP2 density.

 **********************************************************************

 Alpha  occ. eigenvalues --  -11.24016 -11.23961 -11.23960 -11.23841 -11.23839
 Alpha  occ. eigenvalues --  -11.23781  -1.14965  -1.01527  -1.01525  -0.82507
 Alpha  occ. eigenvalues --   -0.82503  -0.71007  -0.64650  -0.61907  -0.58957
 Alpha  occ. eigenvalues --   -0.58956  -0.50016  -0.49658  -0.49651  -0.33628
 Alpha  occ. eigenvalues --   -0.33626
 Alpha virt. eigenvalues --    0.04214   0.04894   0.04894   0.06619   0.06620
 Alpha virt. eigenvalues --    0.08801   0.10836   0.10839   0.12960   0.15271
 Alpha virt. eigenvalues --    0.15271   0.15818   0.16277   0.18089   0.18090
 Alpha virt. eigenvalues --    0.18343   0.18343   0.19288   0.20896   0.21214
 Alpha virt. eigenvalues --    0.21215   0.21586   0.21587   0.21700   0.22821
 Alpha virt. eigenvalues --    0.22822   0.25016   0.25016   0.28891   0.28891
 Alpha virt. eigenvalues --    0.30293   0.33306   0.33442   0.36632   0.40860
 Alpha virt. eigenvalues --    0.40860   0.42878   0.42879   0.43938   0.49709
 Alpha virt. eigenvalues --    0.49711   0.50656   0.50659   0.60469   0.60850
 Alpha virt. eigenvalues --    0.71588   0.72326   0.72327   0.72463   0.74790
 Alpha virt. eigenvalues --    0.74953   0.74957   0.75856   0.75858   0.79655
 Alpha virt. eigenvalues --    0.81945   0.81946   0.88499   0.93903   0.93909
 Alpha virt. eigenvalues --    0.94895   0.94896   0.97637   1.01585   1.01585
 Alpha virt. eigenvalues --    1.01789   1.05923   1.05924   1.10015   1.11972
 Alpha virt. eigenvalues --    1.11975   1.12540   1.17061   1.21741   1.21743
 Alpha virt. eigenvalues --    1.24780   1.32190   1.32194   1.38882   1.38885
 Alpha virt. eigenvalues --    1.52193   1.55955   1.70910   1.78217   1.78224
 Alpha virt. eigenvalues --    1.79213   1.82365   1.84225   1.84227   1.90404
 Alpha virt. eigenvalues --    1.90409   1.92977   1.92984   1.99162   2.05523
 Alpha virt. eigenvalues --    2.05524   2.10009   2.10016   2.12753   2.23173
 Alpha virt. eigenvalues --    2.23185   2.23744   2.24504   2.24506   2.29457
 Alpha virt. eigenvalues --    2.34247   2.34252   2.37618   2.37620   2.63442
 Alpha virt. eigenvalues --    2.65444   2.73669   2.73672   2.74526   2.81423
 Alpha virt. eigenvalues --    2.81427   2.95442   2.95454   2.98809   2.98874
 Alpha virt. eigenvalues --    3.02086   3.02087   3.04451   3.04452   3.05597
 Alpha virt. eigenvalues --    3.08906   3.19016   3.19018   3.25717   3.29134
 Alpha virt. eigenvalues --    3.29134   3.32035   3.32037   3.47668   3.53698
 Alpha virt. eigenvalues --    3.76565   3.76577   3.89934   3.89942   3.91389
 Alpha virt. eigenvalues --    4.06284   4.40780   4.40782   4.49494   4.57438
 Alpha virt. eigenvalues --    4.57440   5.26954  24.75274  25.12800  25.12818
 Alpha virt. eigenvalues --   25.24329  25.24353  25.35243
          Condensed to atoms (all electrons):
              1          2          3          4          5          6
     1  C    8.231931  -2.261105   1.936852  -1.683459   1.936821  -2.261157
     2  C   -2.261105   8.232189  -2.261356   1.936821  -1.683583   1.936862
     3  C    1.936852  -2.261356   8.232103  -2.261157   1.936862  -1.683647
     4  C   -1.683459   1.936821  -2.261157   8.231931  -2.261105   1.936852
     5  C    1.936821  -1.683583   1.936862  -2.261105   8.232189  -2.261356
     6  C   -2.261157   1.936862  -1.683647   1.936852  -2.261356   8.232103
     7  H    0.493920  -0.143239   0.040473  -0.009771   0.040485  -0.143244
     8  H   -0.143242   0.493916  -0.143233   0.040471  -0.009764   0.040466
     9  H    0.040483  -0.143279   0.493963  -0.143279   0.040477  -0.009768
    10  H   -0.009771   0.040485  -0.143244   0.493920  -0.143239   0.040473
    11  H    0.040471  -0.009764   0.040466  -0.143242   0.493916  -0.143233
    12  H   -0.143279   0.040477  -0.009768   0.040483  -0.143279   0.493963
              7          8          9         10         11         12
     1  C    0.493920  -0.143242   0.040483  -0.009771   0.040471  -0.143279
     2  C   -0.143239   0.493916  -0.143279   0.040485  -0.009764   0.040477
     3  C    0.040473  -0.143233   0.493963  -0.143244   0.040466  -0.009768
     4  C   -0.009771   0.040471  -0.143279   0.493920  -0.143242   0.040483
     5  C    0.040485  -0.009764   0.040477  -0.143239   0.493916  -0.143279
     6  C   -0.143244   0.040466  -0.009768   0.040473  -0.143233   0.493963
     7  H    0.564387  -0.010672  -0.000509   0.000952  -0.000509  -0.010681
     8  H   -0.010672   0.564401  -0.010682  -0.000509   0.000953  -0.000509
     9  H   -0.000509  -0.010682   0.564442  -0.010681  -0.000509   0.000953
    10  H    0.000952  -0.000509  -0.010681   0.564387  -0.010672  -0.000509
    11  H   -0.000509   0.000953  -0.000509  -0.010672   0.564401  -0.010682
    12  H   -0.010681  -0.000509   0.000953  -0.000509  -0.010682   0.564442
 Mulliken atomic charges:
              1
     1  C   -0.178464
     2  C   -0.178425
     3  C   -0.178314
     4  C   -0.178464
     5  C   -0.178425
     6  C   -0.178314
     7  H    0.178408
     8  H    0.178405
     9  H    0.178390
    10  H    0.178408
    11  H    0.178405
    12  H    0.178390
 Sum of Mulliken atomic charges =   0.00000
 Mulliken charges with hydrogens summed into heavy atoms:
              1
     1  C   -0.000056
     2  C   -0.000020
     3  C    0.000076
     4  C   -0.000056
     5  C   -0.000020
     6  C    0.000076
 Sum of Mulliken charges with hydrogens summed into heavy atoms =   0.00000
 Electronic spatial extent (au):  <R**2>=            462.2489
 Charge=              0.0000 electrons
 Dipole moment (field-independent basis, Debye):
    X=              0.0000    Y=              0.0000    Z=              0.0000  Tot=              0.0000
 Quadrupole moment (field-independent basis, Debye-Ang):
   XX=            -32.5255   YY=            -32.5270   ZZ=            -40.8687
   XY=              0.0000   XZ=              0.0000   YZ=              0.0000
 Traceless Quadrupole moment (field-independent basis, Debye-Ang):
   XX=              2.7816   YY=              2.7801   ZZ=             -5.5617
   XY=              0.0000   XZ=              0.0000   YZ=              0.0000
 Octapole moment (field-independent basis, Debye-Ang**2):
  XXX=              0.0000  YYY=              0.0000  ZZZ=              0.0000  XYY=              0.0000
  XXY=              0.0000  XXZ=              0.0000  XZZ=              0.0000  YZZ=              0.0000
  YYZ=              0.0000  XYZ=              0.0000
 Hexadecapole moment (field-independent basis, Debye-Ang**3):
 XXXX=           -280.6037 YYYY=           -280.6031 ZZZZ=            -51.5117 XXXY=             -0.0040
 XXXZ=              0.0000 YYYX=              0.0032 YYYZ=              0.0000 ZZZX=              0.0000
 ZZZY=              0.0000 XXYY=            -93.5356 XXZZ=            -66.4815 YYZZ=            -66.4784
 XXYZ=              0.0000 YYXZ=              0.0000 ZZXY=             -0.0005
 N-N= 2.030348356953D+02 E-N=-9.436810342510D+02  KE= 2.314308203908D+02

 **********************************************************************

          Electrostatic Properties Using The MP2 Density

 **********************************************************************

       Atomic Center    1 is at   1.394100 -0.116400  0.000000
       Atomic Center    2 is at   0.797800  1.149100  0.000000
       Atomic Center    3 is at  -0.596200  1.265400  0.000000
       Atomic Center    4 is at  -1.394100  0.116400  0.000000
       Atomic Center    5 is at  -0.797800 -1.149100  0.000000
       Atomic Center    6 is at   0.596200 -1.265400  0.000000
       Atomic Center    7 is at   2.472800 -0.206500  0.000000
       Atomic Center    8 is at   1.415100  2.038300  0.000000
       Atomic Center    9 is at  -1.057600  2.244600  0.000000
       Atomic Center   10 is at  -2.472800  0.206500  0.000000
       Atomic Center   11 is at  -1.415100 -2.038300  0.000000
       Atomic Center   12 is at   1.057600 -2.244600  0.000000
      Read-in Center   13 is at   1.394100 -0.116400  0.568400
      Read-in Center   14 is at   1.465000 -0.116400  0.560800
      Read-in Center   15 is at   1.438500 -0.060700  0.563200
      Read-in Center   16 is at   1.378100 -0.046400  0.568100
      Read-in Center   17 is at   1.329100 -0.085100  0.570800
      Read-in Center   18 is at   1.329100 -0.147600  0.570600
      Read-in Center   19 is at   1.378100 -0.186200  0.567300
      Read-in Center   20 is at   1.438400 -0.171900  0.562500
      Read-in Center   21 is at   1.535200 -0.116400  0.549500
      Read-in Center   22 is at   1.519200 -0.050700  0.550200
      Read-in Center   23 is at   1.474900  0.000600  0.553600
      Read-in Center   24 is at   1.411400  0.026400  0.560000
      Read-in Center   25 is at   1.342600  0.019500  0.565800
      Read-in Center   26 is at   1.285000 -0.019700  0.567600
      Read-in Center   27 is at   1.252800 -0.081500  0.567000
      Read-in Center   28 is at   1.252700 -0.151200  0.567200
      Read-in Center   29 is at   1.285100 -0.213000  0.567400
      Read-in Center   30 is at   1.342700 -0.251800  0.564200
      Read-in Center   31 is at   1.411400 -0.258500  0.557600
      Read-in Center   32 is at   1.474600 -0.233000  0.552000
      Read-in Center   33 is at   1.519100 -0.182000  0.549800
      Read-in Center   34 is at   1.605900 -0.116400  0.535100
      Read-in Center   35 is at   1.594200 -0.047700  0.534300
      Read-in Center   36 is at   1.561100  0.013500  0.534400
      Read-in Center   37 is at   1.510600  0.061900  0.537900
      Read-in Center   38 is at   1.447100  0.093000  0.545400
      Read-in Center   39 is at   1.376000  0.102400  0.554400
      Read-in Center   40 is at   1.305000  0.086800  0.560300
      Read-in Center   41 is at   1.243800  0.046900  0.560600
      Read-in Center   42 is at   1.200100 -0.011400  0.557300
      Read-in Center   43 is at   1.177500 -0.080200  0.554700
      Read-in Center   44 is at   1.177100 -0.152600  0.555700
      Read-in Center   45 is at   1.199400 -0.221700  0.559100
      Read-in Center   46 is at   1.243600 -0.279800  0.561100
      Read-in Center   47 is at   1.305400 -0.318700  0.558000
      Read-in Center   48 is at   1.376100 -0.333400  0.550000
      Read-in Center   49 is at   1.446700 -0.324100  0.541200
      Read-in Center   50 is at   1.510100 -0.293900  0.535600
      Read-in Center   51 is at   1.561000 -0.246200  0.534000
      Read-in Center   52 is at   1.594400 -0.185100  0.534700
      Read-in Center   53 is at   1.678600 -0.116400  0.517500
      Read-in Center   54 is at   1.668500 -0.045900  0.515300
      Read-in Center   55 is at   1.640900  0.019300  0.512200
      Read-in Center   56 is at   1.599000  0.076000  0.511200
      Read-in Center   57 is at   1.545700  0.122600  0.514800
      Read-in Center   58 is at   1.483000  0.157300  0.523400
      Read-in Center   59 is at   1.412600  0.177200  0.535100
      Read-in Center   60 is at   1.337900  0.178400  0.546000
      Read-in Center   61 is at   1.265000  0.158000  0.551600
      Read-in Center   62 is at   1.201300  0.116600  0.550100
      Read-in Center   63 is at   1.152400  0.059300  0.543500
      Read-in Center   64 is at   1.120000 -0.007800  0.536300
      Read-in Center   65 is at   1.103500 -0.079700  0.532700
      Read-in Center   66 is at   1.102500 -0.153200  0.534600
      Read-in Center   67 is at   1.117600 -0.225900  0.540900
      Read-in Center   68 is at   1.150300 -0.293500  0.548200
      Read-in Center   69 is at   1.200700 -0.350200  0.551800
      Read-in Center   70 is at   1.265700 -0.389300  0.548600
      Read-in Center   71 is at   1.338600 -0.407500  0.539100
      Read-in Center   72 is at   1.412300 -0.405600  0.527200
      Read-in Center   73 is at   1.482000 -0.386800  0.517200
      Read-in Center   74 is at   1.544900 -0.354000  0.511900
      Read-in Center   75 is at   1.599100 -0.308900  0.511500
      Read-in Center   76 is at   1.641800 -0.252600  0.514200
      Read-in Center   77 is at   1.669400 -0.187100  0.517000
      Read-in Center   78 is at   1.754800 -0.116400  0.496500
      Read-in Center   79 is at   1.744200 -0.042000  0.492600
      Read-in Center   80 is at   1.717000  0.027400  0.486400
      Read-in Center   81 is at   1.677000  0.089200  0.481200
      Read-in Center   82 is at   1.627500  0.142800  0.480100
      Read-in Center   83 is at   1.570200  0.188500  0.484600
      Read-in Center   84 is at   1.505300  0.225800  0.495200
      Read-in Center   85 is at   1.432900  0.252200  0.510100
      Read-in Center   86 is at   1.354200  0.263400  0.525600
      Read-in Center   87 is at   1.273600  0.254500  0.536700
      Read-in Center   88 is at   1.198200  0.222900  0.539200
      Read-in Center   89 is at   1.135100  0.171300  0.532800
      Read-in Center   90 is at   1.087800  0.106200  0.521000
      Read-in Center   91 is at   1.056100  0.034100  0.509200
      Read-in Center   92 is at   1.037400 -0.040500  0.501900
      Read-in Center   93 is at   1.029900 -0.116400  0.501200
      Read-in Center   94 is at   1.033600 -0.193000  0.507200
      Read-in Center   95 is at   1.049900 -0.269600  0.518500
      Read-in Center   96 is at   1.082200 -0.343000  0.530600
      Read-in Center   97 is at   1.132300 -0.407100  0.538600
      Read-in Center   98 is at   1.198600 -0.454900  0.538100
      Read-in Center   99 is at   1.275500 -0.481600  0.528500
      Read-in Center  100 is at   1.355100 -0.487400  0.513400
      Read-in Center  101 is at   1.431900 -0.476200  0.498000
      Read-in Center  102 is at   1.503300 -0.452400  0.486300
      Read-in Center  103 is at   1.568600 -0.418700  0.480500
      Read-in Center  104 is at   1.627700 -0.375900  0.480600
      Read-in Center  105 is at   1.679300 -0.323600  0.485200
      Read-in Center  106 is at   1.720200 -0.261600  0.491400
      Read-in Center  107 is at   1.746600 -0.191300  0.496000
      Read-in Center  108 is at   1.836600 -0.116400  0.471200
      Read-in Center  109 is at   1.824200 -0.038300  0.465500
      Read-in Center  110 is at   1.795300  0.034200  0.456300
      Read-in Center  111 is at   1.754500  0.099000  0.447100
      Read-in Center  112 is at   1.706000  0.156100  0.441000
      Read-in Center  113 is at   1.651800  0.206800  0.440200
      Read-in Center  114 is at   1.592500  0.252400  0.445900
      Read-in Center  115 is at   1.527100  0.292800  0.458200
      Read-in Center  116 is at   1.454100  0.326600  0.476000
      Read-in Center  117 is at   1.373200  0.349400  0.496500
      Read-in Center  118 is at   1.286600  0.354700  0.514500
      Read-in Center  119 is at   1.200700  0.336100  0.524000
      Read-in Center  120 is at   1.124400  0.292200  0.521300
      Read-in Center  121 is at   1.064400  0.228500  0.508100
      Read-in Center  122 is at   1.021600  0.154200  0.490200
      Read-in Center  123 is at   1.783600 -0.304000 -0.460400
      Read-in Center  124 is at   1.818400 -0.233500 -0.468700
      Read-in Center  125 is at   1.835400 -0.156100 -0.471800
      Read-in Center  126 is at   1.832900 -0.076900 -0.469200
      Read-in Center  127 is at   1.811500 -0.001200 -0.461100
      Read-in Center  128 is at   0.980300 -0.315700  0.489100
      Read-in Center  129 is at   1.009000 -0.396200  0.506900
      Read-in Center  130 is at   1.056200 -0.469800  0.520700
      Read-in Center  131 is at   1.122900 -0.527300  0.524300
      Read-in Center  132 is at   1.203800 -0.561600  0.515500
      Read-in Center  133 is at   1.290100 -0.572300  0.497900
      Read-in Center  134 is at   1.374000 -0.564300  0.477500
      Read-in Center  135 is at   1.452000 -0.543800  0.459400
      Read-in Center  136 is at   1.523700 -0.515200  0.446600
      Read-in Center  137 is at   1.590100 -0.480500  0.440400
      Read-in Center  138 is at   1.652100 -0.440000  0.440700
      Read-in Center  139 is at   1.709900 -0.392300  0.446500
      Read-in Center  140 is at   1.761400 -0.335800  0.455600
      Read-in Center  141 is at   1.802900 -0.269800  0.464900
      Read-in Center  142 is at   1.829300 -0.195400  0.471000
      Read-in Center  143 is at   1.927400 -0.116400  0.441200
      Read-in Center  144 is at   1.910800 -0.032400  0.433100
      Read-in Center  145 is at   1.875900  0.044500  0.420300
      Read-in Center  146 is at   1.829700  0.112200  0.406900
      Read-in Center  147 is at   1.777300  0.171600  0.396500
      Read-in Center  148 is at   1.721600  0.224600  0.391200
      Read-in Center  149 is at   1.663400  0.273700  0.392200
      Read-in Center  150 is at   1.601500  0.320700  0.400300
      Read-in Center  151 is at   1.533800  0.365900  0.415400
      Read-in Center  152 is at   1.457800  0.408200  0.437100
      Read-in Center  153 is at   1.371500  0.443800  0.463800
      Read-in Center  154 is at   1.275600  0.463800  0.489900
      Read-in Center  155 is at   1.176500  0.457300  0.507500
      Read-in Center  156 is at   1.087100  0.415300  0.507900
      Read-in Center  157 is at   1.018700  0.343400  0.491000
      Read-in Center  158 is at   0.972600  0.257000  0.465800
      Read-in Center  159 is at   0.943300  0.168700  0.441200
      Read-in Center  160 is at   1.869400 -0.318900 -0.427400
      Read-in Center  161 is at   1.908400 -0.243200 -0.438200
      Read-in Center  162 is at   1.926900 -0.159400 -0.442200
      Read-in Center  163 is at   1.921700 -0.073800 -0.437900
      Read-in Center  164 is at   1.895100  0.007100 -0.426900
      Read-in Center  165 is at   0.902500 -0.325800  0.442000
      Read-in Center  166 is at   0.917300 -0.417900  0.466700
      Read-in Center  167 is at   0.949100 -0.510600  0.491800
      Read-in Center  168 is at   1.005600 -0.592300  0.508200
      Read-in Center  169 is at   1.087600 -0.647300  0.507200
      Read-in Center  170 is at   1.184500 -0.669100  0.489100
      Read-in Center  171 is at   1.282200 -0.664600  0.462900
      Read-in Center  172 is at   1.372800 -0.643300  0.436300
      Read-in Center  173 is at   1.454500 -0.614100  0.414700
      Read-in Center  174 is at   1.528600 -0.580700  0.399800
      Read-in Center  175 is at   1.597300 -0.544500  0.392000
      Read-in Center  176 is at   1.662800 -0.505600  0.391300
      Read-in Center  177 is at   1.726400 -0.462300  0.396800
      Read-in Center  178 is at   1.787800 -0.412200  0.407400
      Read-in Center  179 is at   1.844400 -0.352700  0.420700
      Read-in Center  180 is at   1.891100 -0.282300  0.433400
      Read-in Center  181 is at   1.920600 -0.201900  0.441300
      Read-in Center  182 is at   2.034400 -0.116400  0.406300
      Read-in Center  183 is at   2.009400 -0.025800  0.394700
      Read-in Center  184 is at   1.963700  0.055000  0.377500
      Read-in Center  185 is at   1.907800  0.124500  0.360100
      Read-in Center  186 is at   1.848700  0.184400  0.345900
      Read-in Center  187 is at   1.789200  0.237600  0.336700
      Read-in Center  188 is at   1.730000  0.287200  0.333300
      Read-in Center  189 is at   1.670100  0.335900  0.336200
      Read-in Center  190 is at   1.607400  0.385600  0.346100
      Read-in Center  191 is at   1.538900  0.437400  0.363200
      Read-in Center  192 is at   1.461100  0.492100  0.388500
      Read-in Center  193 is at   1.369800  0.548800  0.422400
      Read-in Center  194 is at   1.261500  0.601500  0.463300
      Read-in Center  195 is at   1.139400  0.630400  0.500700
      Read-in Center  196 is at   1.025500  0.600600  0.511600
      Read-in Center  197 is at   0.948100  0.507100  0.486500
      Read-in Center  198 is at   0.907200  0.388600  0.445100
      Read-in Center  199 is at   0.886000  0.276000  0.407400
      Read-in Center  200 is at   0.873700  0.175700  0.378700
      Read-in Center  201 is at   1.966200 -0.335200 -0.388700
      Read-in Center  202 is at   2.013900 -0.254500 -0.403000
      Read-in Center  203 is at   2.035400 -0.163300 -0.408100
      Read-in Center  204 is at   2.025000 -0.070200 -0.401500
      Read-in Center  205 is at   1.988200  0.016000 -0.386300
      Read-in Center  206 is at   0.831500 -0.331500  0.382200
      Read-in Center  207 is at   0.827800 -0.434200  0.412100
      Read-in Center  208 is at   0.831600 -0.550700  0.451000
      Read-in Center  209 is at   0.856400 -0.674100  0.491600
      Read-in Center  210 is at   0.924300 -0.773100  0.512400
      Read-in Center  211 is at   1.036400 -0.812100  0.496500
      Read-in Center  212 is at   1.161400 -0.798500  0.457400
      Read-in Center  213 is at   1.274700 -0.762800  0.417200
      Read-in Center  214 is at   1.372000 -0.721800  0.384400
      Read-in Center  215 is at   1.456200 -0.680800  0.360400
      Read-in Center  216 is at   1.531300 -0.641200  0.344200
      Read-in Center  217 is at   1.600800 -0.602800  0.335400
      Read-in Center  218 is at   1.667900 -0.564900  0.333500
      Read-in Center  219 is at   1.734400 -0.525300  0.337600
      Read-in Center  220 is at   1.802100 -0.481900  0.347600
      Read-in Center  221 is at   1.870300 -0.431400  0.362400
      Read-in Center  222 is at   1.936300 -0.370500  0.380000
      Read-in Center  223 is at   1.992900 -0.296500  0.396800
      Read-in Center  224 is at   2.028900 -0.209800  0.407100
      Read-in Center  225 is at   2.175800 -0.116400  0.367800
      Read-in Center  226 is at   2.129700 -0.015300  0.349400
      Read-in Center  227 is at   2.060100  0.070200  0.325500
      Read-in Center  228 is at   1.985800  0.140600  0.303500
      Read-in Center  229 is at   1.914400  0.200000  0.286500
      Read-in Center  230 is at   1.847400  0.252400  0.275000
      Read-in Center  231 is at   1.784300  0.301500  0.269000
      Read-in Center  232 is at   1.723300  0.350000  0.268600
      Read-in Center  233 is at   1.662000  0.400700  0.274100
      Read-in Center  234 is at   1.597700  0.456500  0.286100
      Read-in Center  235 is at   1.526500  0.520700  0.306200
      Read-in Center  236 is at   1.443000  0.598700  0.337200
      Read-in Center  237 is at   1.337800  0.707600  0.388700
      Read-in Center  238 is at   1.190200  0.864900  0.471600
      Read-in Center  239 is at   1.007800  0.970600  0.542800
      Read-in Center  240 is at   0.844500  0.944400  0.562200
      Read-in Center  241 is at   0.753700  0.790900  0.522600
      Read-in Center  242 is at   0.775400  0.546200  0.426600
      Read-in Center  243 is at   0.804000  0.363700  0.358000
      Read-in Center  244 is at   0.813900  0.236400  0.319500
      Read-in Center  245 is at   2.038600 -0.396300 -0.330600
      Read-in Center  246 is at   2.129700 -0.015300 -0.349400
      Read-in Center  247 is at   2.060100  0.070200 -0.325500
      Read-in Center  248 is at   0.758000 -0.392600  0.326300
      Read-in Center  249 is at   0.722900 -0.524500  0.369600
      Read-in Center  250 is at   0.656300 -0.716600  0.447600
      Read-in Center  251 is at   0.614300 -0.951400  0.537600
      Read-in Center  252 is at   0.704900 -1.092800  0.562400
      Read-in Center  253 is at   0.874400 -1.119300  0.531600
      Read-in Center  254 is at   1.072700 -1.020600  0.451600
      Read-in Center  255 is at   1.232000 -0.896600  0.375000
      Read-in Center  256 is at   1.346300 -0.814500  0.329300
      Read-in Center  257 is at   1.437700 -0.754400  0.300900
      Read-in Center  258 is at   1.516400 -0.704900  0.282800
      Read-in Center  259 is at   1.587900 -0.661700  0.272400
      Read-in Center  260 is at   1.656300 -0.622400  0.268200
      Read-in Center  261 is at   1.724900 -0.585000  0.269900
      Read-in Center  262 is at   1.796000 -0.546700  0.277100
      Read-in Center  263 is at   1.871900 -0.505100  0.289800
      Read-in Center  264 is at   1.953400 -0.456500  0.308000
      Read-in Center  265 is at   2.038900 -0.396500  0.330800
      Read-in Center  266 is at   2.119100 -0.319500  0.354300
      Read-in Center  267 is at   2.173100 -0.223500  0.370000
      Read-in Center  268 is at   2.392100 -0.116400  0.324300
      Read-in Center  269 is at   2.295500  0.002300  0.295400
      Read-in Center  270 is at   2.169000  0.091200  0.260700
      Read-in Center  271 is at   2.061400  0.160000  0.234700
      Read-in Center  272 is at   1.971800  0.217100  0.216800
      Read-in Center  273 is at   1.894600  0.267700  0.205000
      Read-in Center  274 is at   1.825800  0.315300  0.198300
      Read-in Center  275 is at   1.762200  0.363300  0.196500
      Read-in Center  276 is at   1.700500  0.414300  0.199100
      Read-in Center  277 is at   1.637700  0.471700  0.206800
      Read-in Center  278 is at   1.570200  0.540800  0.221000
      Read-in Center  279 is at   1.492700  0.632600  0.245500
      Read-in Center  280 is at   1.394100  0.792000  0.295100
      Read-in Center  281 is at   1.220900  1.199400  0.431200
      Read-in Center  282 is at   0.988100  1.398900  0.509700
      Read-in Center  283 is at   0.773200  1.382700  0.527200
      Read-in Center  284 is at   0.568900  1.313000  0.536300
      Read-in Center  285 is at   0.389200  1.193200  0.536400
      Read-in Center  286 is at   0.440300  0.837400  0.438300
      Read-in Center  287 is at   0.761500  0.248800  0.237300
      Read-in Center  288 is at   0.781900  0.047700  0.206000
      Read-in Center  289 is at   2.169000  0.091200 -0.260700
      Read-in Center  290 is at   2.061200  0.159900 -0.234600
      Read-in Center  291 is at   1.971700  0.217100 -0.216700
      Read-in Center  292 is at   0.166300 -1.058500  0.502800
      Read-in Center  293 is at   0.222300 -1.288200  0.538500
      Read-in Center  294 is at   0.393400 -1.420500  0.534100
      Read-in Center  295 is at   0.587600 -1.513300  0.524100
      Read-in Center  296 is at   0.805900 -1.536400  0.499400
      Read-in Center  297 is at   1.088800 -1.255700  0.383300
      Read-in Center  298 is at   1.282900 -0.961300  0.276900
      Read-in Center  299 is at   1.394100 -0.846600  0.237300
      Read-in Center  300 is at   1.481100 -0.776800  0.216400
      Read-in Center  301 is at   1.556800 -0.723400  0.204200
      Read-in Center  302 is at   1.627200 -0.679200  0.197900
      Read-in Center  303 is at   1.696500 -0.640300  0.196500
      Read-in Center  304 is at   1.768200 -0.604000  0.199700
      Read-in Center  305 is at   1.846000 -0.568300  0.207600
      Read-in Center  306 is at   1.933600 -0.530300  0.220900
      Read-in Center  307 is at   2.036300 -0.487200  0.240900
      Read-in Center  308 is at   2.160300 -0.433800  0.269500
      Read-in Center  309 is at   2.300800 -0.359400  0.305000
      Read-in Center  310 is at   2.395400 -0.248200  0.328100
      Read-in Center  311 is at   2.595500 -0.116400  0.229200
      Read-in Center  312 is at   2.488100  0.021800  0.210300
      Read-in Center  313 is at   2.294400  0.114800  0.177300
      Read-in Center  314 is at   2.133900  0.176500  0.151800
      Read-in Center  315 is at   2.022600  0.229100  0.136800
      Read-in Center  316 is at   1.935100  0.276700  0.127600
      Read-in Center  317 is at   1.861100  0.322200  0.122200
      Read-in Center  318 is at   1.795000  0.368300  0.120000
      Read-in Center  319 is at   1.733100  0.417800  0.120700
      Read-in Center  320 is at   1.671800  0.473800  0.124400
      Read-in Center  321 is at   1.608000  0.541900  0.132000
      Read-in Center  322 is at   1.273200  1.804900  0.367200
      Read-in Center  323 is at   1.032300  1.780500  0.368400
      Read-in Center  324 is at   0.806200  1.693000  0.362900
      Read-in Center  325 is at   0.346700  1.534000  0.372900
      Read-in Center  326 is at   0.057600  1.499200  0.400000
      Read-in Center  327 is at   2.122900 -0.517100 -0.158600
      Read-in Center  328 is at  -0.890100 -0.404900  0.439200
      Read-in Center  329 is at  -0.087800 -1.508000  0.387800
      Read-in Center  330 is at   0.163200 -1.604300  0.368400
      Read-in Center  331 is at   0.580700 -1.845000  0.364400
      Read-in Center  332 is at   0.794600 -1.961400  0.370100
      Read-in Center  333 is at   1.053100 -1.903800  0.347100
      Read-in Center  334 is at   1.340700 -0.964800  0.162100
      Read-in Center  335 is at   1.273200  1.804900 -0.367200
      Read-in Center  336 is at   1.520900 -0.780900  0.129100
      Read-in Center  337 is at   1.593000 -0.728700  0.122800
      Read-in Center  338 is at   1.662100 -0.686000  0.120100
      Read-in Center  339 is at   1.732300 -0.649400  0.120400
      Read-in Center  340 is at   1.807000 -0.615500  0.123600
      Read-in Center  341 is at   1.891300 -0.583300  0.130100
      Read-in Center  342 is at   1.991800 -0.550700  0.140900
      Read-in Center  343 is at   2.122800 -0.517000  0.158600
      Read-in Center  344 is at   2.312800 -0.480100  0.188500
      Read-in Center  345 is at   2.503100 -0.401100  0.218400
      Read-in Center  346 is at   2.598900 -0.268600  0.231600
      Read-in Center  347 is at   2.694000 -0.116400  0.081800
      Read-in Center  348 is at   2.590400  0.034800  0.075900
      Read-in Center  349 is at   2.377300  0.136100  0.063900
      Read-in Center  350 is at   2.171700  0.191500  0.052600
      Read-in Center  351 is at   2.043500  0.240600  0.046600
      Read-in Center  352 is at   1.948800  0.286700  0.043100
      Read-in Center  353 is at   1.871000  0.331500  0.041200
      Read-in Center  354 is at   1.802700  0.377600  0.040300
      Read-in Center  355 is at   1.739700  0.428100  0.040600
      Read-in Center  356 is at   1.677500  0.485900  0.041900
      Read-in Center  357 is at   1.613100  0.557900  0.044600
      Read-in Center  358 is at   0.950300 -2.442500 -0.149000
      Read-in Center  359 is at   1.540100  2.203800  0.146300
      Read-in Center  360 is at   1.246800  2.223800  0.147500
      Read-in Center  361 is at   0.988100  2.012000  0.136300
      Read-in Center  362 is at   0.760400  1.833900  0.129000
      Read-in Center  363 is at   0.270000  1.654800  0.132000
      Read-in Center  364 is at  -1.196400  2.316300  0.223600
      Read-in Center  365 is at   0.259700  0.707800  0.088200
      Read-in Center  366 is at  -0.163300  0.739800  0.111800
      Read-in Center  367 is at  -0.448800  0.613300  0.124700
      Read-in Center  368 is at  -0.647900  0.407900  0.132600
      Read-in Center  369 is at  -0.665800 -0.376600  0.130600
      Read-in Center  370 is at  -0.176200 -0.738100  0.106300
      Read-in Center  371 is at  -0.239200 -1.650200  0.141000
      Read-in Center  372 is at   0.079500 -1.705500  0.129800
      Read-in Center  373 is at   0.509900 -1.995400  0.130700
      Read-in Center  374 is at   0.705000 -2.237100  0.140300
      Read-in Center  375 is at   0.950300 -2.442600  0.149000
      Read-in Center  376 is at   1.254000 -2.343400  0.140400
      Read-in Center  377 is at   1.441600 -0.872100  0.047600
      Read-in Center  378 is at   1.523800 -0.796100  0.043600
      Read-in Center  379 is at   1.597100 -0.741200  0.041300
      Read-in Center  380 is at   1.667300 -0.697000  0.040400
      Read-in Center  381 is at   1.738900 -0.659800  0.040500
      Read-in Center  382 is at   1.816300 -0.626700  0.041600
      Read-in Center  383 is at   1.904900 -0.596000  0.044100
      Read-in Center  384 is at   2.014300 -0.566900  0.048200
      Read-in Center  385 is at   2.168000 -0.541800  0.055600
      Read-in Center  386 is at   2.404900 -0.516600  0.068400
      Read-in Center  387 is at   2.601500 -0.426400  0.078400
      Read-in Center  388 is at   2.696200 -0.280900  0.082600
      Read-in Center  389 is at   2.694000 -0.116400 -0.081800
      Read-in Center  390 is at   2.590400  0.034800 -0.075900
      Read-in Center  391 is at   2.377300  0.136100 -0.063900
      Read-in Center  392 is at   2.171700  0.191500 -0.052600
      Read-in Center  393 is at   2.043500  0.240600 -0.046600
      Read-in Center  394 is at   1.948800  0.286700 -0.043100
      Read-in Center  395 is at   1.871000  0.331500 -0.041200
      Read-in Center  396 is at   1.802700  0.377600 -0.040300
      Read-in Center  397 is at   1.739700  0.428100 -0.040600
      Read-in Center  398 is at   1.677500  0.485900 -0.041900
      Read-in Center  399 is at   1.613100  0.557900 -0.044600
      Read-in Center  400 is at   0.950300 -2.442600  0.149000
      Read-in Center  401 is at   1.540100  2.203800 -0.146300
      Read-in Center  402 is at   1.246800  2.223800 -0.147500
      Read-in Center  403 is at   0.988100  2.012000 -0.136300
      Read-in Center  404 is at   0.760400  1.833900 -0.129000
      Read-in Center  405 is at   0.270000  1.654800 -0.132000
      Read-in Center  406 is at  -1.196400  2.316300 -0.223600
      Read-in Center  407 is at   0.259700  0.707800 -0.088200
      Read-in Center  408 is at  -0.163300  0.739800 -0.111800
      Read-in Center  409 is at  -0.448800  0.613300 -0.124700
      Read-in Center  410 is at  -0.647900  0.407900 -0.132700
      Read-in Center  411 is at  -0.665800 -0.376600 -0.130700
      Read-in Center  412 is at  -0.176200 -0.738100 -0.106300
      Read-in Center  413 is at  -0.239200 -1.650200 -0.141000
      Read-in Center  414 is at   0.079500 -1.705500 -0.129800
      Read-in Center  415 is at   0.509900 -1.995400 -0.130700
      Read-in Center  416 is at   0.705000 -2.237100 -0.140300
      Read-in Center  417 is at   0.950300 -2.442500 -0.149000
      Read-in Center  418 is at   1.254000 -2.343400 -0.140400
      Read-in Center  419 is at   1.441600 -0.872100 -0.047600
      Read-in Center  420 is at   1.523800 -0.796100 -0.043600
      Read-in Center  421 is at   1.597100 -0.741200 -0.041300
      Read-in Center  422 is at   1.667300 -0.697000 -0.040400
      Read-in Center  423 is at   1.738900 -0.659800 -0.040500
      Read-in Center  424 is at   1.816300 -0.626700 -0.041700
      Read-in Center  425 is at   1.904900 -0.596000 -0.044100
      Read-in Center  426 is at   2.014300 -0.566900 -0.048200
      Read-in Center  427 is at   2.168000 -0.541800 -0.055600
      Read-in Center  428 is at   2.404900 -0.516600 -0.068400
      Read-in Center  429 is at   2.601500 -0.426400 -0.078400
      Read-in Center  430 is at   2.696200 -0.280900 -0.082600
      Read-in Center  431 is at   2.595500 -0.116400 -0.229200
      Read-in Center  432 is at   2.488100  0.021800 -0.210300
      Read-in Center  433 is at   2.294400  0.114800 -0.177300
      Read-in Center  434 is at   2.133900  0.176500 -0.151800
      Read-in Center  435 is at   2.022600  0.229100 -0.136800
      Read-in Center  436 is at   1.935100  0.276700 -0.127600
      Read-in Center  437 is at   1.861100  0.322200 -0.122200
      Read-in Center  438 is at   1.795000  0.368300 -0.120000
      Read-in Center  439 is at   1.733100  0.417800 -0.120700
      Read-in Center  440 is at   1.671800  0.473800 -0.124400
      Read-in Center  441 is at   1.608000  0.541900 -0.132000
      Read-in Center  442 is at   1.273200  1.804900 -0.367200
      Read-in Center  443 is at   1.032300  1.780400 -0.368400
      Read-in Center  444 is at   0.806200  1.693000 -0.362900
      Read-in Center  445 is at   0.346700  1.534000 -0.372900
      Read-in Center  446 is at   0.057600  1.499200 -0.400000
      Read-in Center  447 is at   2.122900 -0.517100  0.158600
      Read-in Center  448 is at  -0.890100 -0.404900 -0.439200
      Read-in Center  449 is at  -0.087800 -1.508000 -0.387800
      Read-in Center  450 is at   0.163300 -1.604300 -0.368400
      Read-in Center  451 is at   0.580700 -1.845000 -0.364400
      Read-in Center  452 is at   0.794600 -1.961400 -0.370100
      Read-in Center  453 is at   1.053200 -1.903700 -0.347100
      Read-in Center  454 is at   1.340700 -0.964800 -0.162200
      Read-in Center  455 is at   1.273200  1.804900  0.367200
      Read-in Center  456 is at   1.520900 -0.780900 -0.129100
      Read-in Center  457 is at   1.593000 -0.728700 -0.122800
      Read-in Center  458 is at   1.662100 -0.686000 -0.120100
      Read-in Center  459 is at   1.732300 -0.649400 -0.120400
      Read-in Center  460 is at   1.807000 -0.615500 -0.123600
      Read-in Center  461 is at   1.891300 -0.583300 -0.130100
      Read-in Center  462 is at   1.991800 -0.550700 -0.140900
      Read-in Center  463 is at   2.122800 -0.517000 -0.158600
      Read-in Center  464 is at   2.312800 -0.480100 -0.188500
      Read-in Center  465 is at   2.503100 -0.401100 -0.218400
      Read-in Center  466 is at   2.598900 -0.268600 -0.231700
      Read-in Center  467 is at   2.392100 -0.116400 -0.324300
      Read-in Center  468 is at   2.295500  0.002300 -0.295400
      Read-in Center  469 is at   2.169000  0.091200 -0.260700
      Read-in Center  470 is at   2.061400  0.160000 -0.234700
      Read-in Center  471 is at   1.971800  0.217100 -0.216800
      Read-in Center  472 is at   1.894600  0.267700 -0.205000
      Read-in Center  473 is at   1.825800  0.315300 -0.198400
      Read-in Center  474 is at   1.762200  0.363300 -0.196500
      Read-in Center  475 is at   1.700500  0.414300 -0.199100
      Read-in Center  476 is at   1.637700  0.471700 -0.206900
      Read-in Center  477 is at   1.570200  0.540800 -0.221000
      Read-in Center  478 is at   1.492700  0.632600 -0.245500
      Read-in Center  479 is at   1.394100  0.792000 -0.295100
      Read-in Center  480 is at   1.220900  1.199400 -0.431200
      Read-in Center  481 is at   0.988100  1.398900 -0.509700
      Read-in Center  482 is at   0.773200  1.382700 -0.527200
      Read-in Center  483 is at   0.568900  1.313000 -0.536300
      Read-in Center  484 is at   0.389200  1.193200 -0.536400
      Read-in Center  485 is at   0.440400  0.837400 -0.438300
      Read-in Center  486 is at   0.761500  0.248800 -0.237300
      Read-in Center  487 is at   0.781900  0.047700 -0.206000
      Read-in Center  488 is at   2.169000  0.091200  0.260700
      Read-in Center  489 is at   2.061200  0.159900  0.234600
      Read-in Center  490 is at   1.971700  0.217100  0.216700
      Read-in Center  491 is at   0.166400 -1.058500 -0.502800
      Read-in Center  492 is at   0.222300 -1.288200 -0.538500
      Read-in Center  493 is at   0.393400 -1.420400 -0.534100
      Read-in Center  494 is at   0.587600 -1.513300 -0.524100
      Read-in Center  495 is at   0.805900 -1.536400 -0.499400
      Read-in Center  496 is at   1.088800 -1.255700 -0.383200
      Read-in Center  497 is at   1.282900 -0.961300 -0.276900
      Read-in Center  498 is at   1.394100 -0.846600 -0.237300
      Read-in Center  499 is at   1.481100 -0.776800 -0.216400
      Read-in Center  500 is at   1.556800 -0.723400 -0.204200
      Read-in Center  501 is at   1.627200 -0.679200 -0.197900
      Read-in Center  502 is at   1.696500 -0.640300 -0.196500
      Read-in Center  503 is at   1.768200 -0.604000 -0.199700
      Read-in Center  504 is at   1.846000 -0.568300 -0.207600
      Read-in Center  505 is at   1.933600 -0.530300 -0.221000
      Read-in Center  506 is at   2.036300 -0.487200 -0.240900
      Read-in Center  507 is at   2.160300 -0.433800 -0.269500
      Read-in Center  508 is at   2.300800 -0.359400 -0.305000
      Read-in Center  509 is at   2.395400 -0.248200 -0.328100
      Read-in Center  510 is at   2.175800 -0.116400 -0.367800
      Read-in Center  511 is at   2.129700 -0.015300 -0.349400
      Read-in Center  512 is at   2.060100  0.070200 -0.325500
      Read-in Center  513 is at   1.985800  0.140600 -0.303500
      Read-in Center  514 is at   1.914400  0.200000 -0.286500
      Read-in Center  515 is at   1.847400  0.252400 -0.275000
      Read-in Center  516 is at   1.784300  0.301500 -0.269000
      Read-in Center  517 is at   1.723300  0.350000 -0.268600
      Read-in Center  518 is at   1.662000  0.400700 -0.274100
      Read-in Center  519 is at   1.597700  0.456500 -0.286100
      Read-in Center  520 is at   1.526500  0.520700 -0.306200
      Read-in Center  521 is at   1.443000  0.598700 -0.337200
      Read-in Center  522 is at   1.337800  0.707600 -0.388700
      Read-in Center  523 is at   1.190200  0.864900 -0.471600
      Read-in Center  524 is at   1.007800  0.970600 -0.542800
      Read-in Center  525 is at   0.844500  0.944400 -0.562200
      Read-in Center  526 is at   0.753700  0.790900 -0.522600
      Read-in Center  527 is at   0.775400  0.546200 -0.426600
      Read-in Center  528 is at   0.804000  0.363700 -0.358000
      Read-in Center  529 is at   0.813900  0.236400 -0.319500
      Read-in Center  530 is at   2.038600 -0.396300  0.330600
      Read-in Center  531 is at   2.129700 -0.015300  0.349400
      Read-in Center  532 is at   2.060100  0.070200  0.325400
      Read-in Center  533 is at   0.758000 -0.392600 -0.326300
      Read-in Center  534 is at   0.722900 -0.524500 -0.369600
      Read-in Center  535 is at   0.656300 -0.716600 -0.447600
      Read-in Center  536 is at   0.614300 -0.951400 -0.537600
      Read-in Center  537 is at   0.704900 -1.092700 -0.562400
      Read-in Center  538 is at   0.874400 -1.119300 -0.531600
      Read-in Center  539 is at   1.072700 -1.020600 -0.451600
      Read-in Center  540 is at   1.232000 -0.896600 -0.375000
      Read-in Center  541 is at   1.346300 -0.814500 -0.329300
      Read-in Center  542 is at   1.437700 -0.754400 -0.300900
      Read-in Center  543 is at   1.516400 -0.704900 -0.282800
      Read-in Center  544 is at   1.587900 -0.661700 -0.272400
      Read-in Center  545 is at   1.656300 -0.622400 -0.268200
      Read-in Center  546 is at   1.724900 -0.585000 -0.269900
      Read-in Center  547 is at   1.796000 -0.546700 -0.277100
      Read-in Center  548 is at   1.871900 -0.505100 -0.289800
      Read-in Center  549 is at   1.953400 -0.456500 -0.308000
      Read-in Center  550 is at   2.038900 -0.396500 -0.330800
      Read-in Center  551 is at   2.119100 -0.319500 -0.354300
      Read-in Center  552 is at   2.173100 -0.223500 -0.370000
      Read-in Center  553 is at   2.034400 -0.116400 -0.406300
      Read-in Center  554 is at   2.009400 -0.025800 -0.394700
      Read-in Center  555 is at   1.963700  0.055000 -0.377500
      Read-in Center  556 is at   1.907800  0.124500 -0.360100
      Read-in Center  557 is at   1.848700  0.184400 -0.345900
      Read-in Center  558 is at   1.789200  0.237600 -0.336700
      Read-in Center  559 is at   1.730000  0.287200 -0.333300
      Read-in Center  560 is at   1.670100  0.335900 -0.336200
      Read-in Center  561 is at   1.607400  0.385600 -0.346100
      Read-in Center  562 is at   1.538900  0.437400 -0.363200
      Read-in Center  563 is at   1.461100  0.492100 -0.388500
      Read-in Center  564 is at   1.369800  0.548800 -0.422400
      Read-in Center  565 is at   1.261500  0.601500 -0.463300
      Read-in Center  566 is at   1.139400  0.630400 -0.500700
      Read-in Center  567 is at   1.025500  0.600600 -0.511600
      Read-in Center  568 is at   0.948100  0.507100 -0.486500
      Read-in Center  569 is at   0.907300  0.388600 -0.445100
      Read-in Center  570 is at   0.886000  0.276000 -0.407400
      Read-in Center  571 is at   0.873700  0.175700 -0.378700
      Read-in Center  572 is at   1.966200 -0.335200  0.388700
      Read-in Center  573 is at   2.013900 -0.254500  0.403000
      Read-in Center  574 is at   2.035400 -0.163300  0.408100
      Read-in Center  575 is at   2.025000 -0.070200  0.401400
      Read-in Center  576 is at   1.988200  0.016000  0.386300
      Read-in Center  577 is at   0.831500 -0.331500 -0.382200
      Read-in Center  578 is at   0.827800 -0.434200 -0.412100
      Read-in Center  579 is at   0.831600 -0.550700 -0.451000
      Read-in Center  580 is at   0.856400 -0.674100 -0.491600
      Read-in Center  581 is at   0.924300 -0.773100 -0.512400
      Read-in Center  582 is at   1.036400 -0.812100 -0.496500
      Read-in Center  583 is at   1.161400 -0.798500 -0.457400
      Read-in Center  584 is at   1.274700 -0.762800 -0.417200
      Read-in Center  585 is at   1.372000 -0.721800 -0.384400
      Read-in Center  586 is at   1.456200 -0.680800 -0.360400
      Read-in Center  587 is at   1.531300 -0.641200 -0.344200
      Read-in Center  588 is at   1.600800 -0.602800 -0.335400
      Read-in Center  589 is at   1.667900 -0.564900 -0.333500
      Read-in Center  590 is at   1.734400 -0.525300 -0.337600
      Read-in Center  591 is at   1.802100 -0.481900 -0.347600
      Read-in Center  592 is at   1.870300 -0.431400 -0.362400
      Read-in Center  593 is at   1.936300 -0.370500 -0.380000
      Read-in Center  594 is at   1.992900 -0.296500 -0.396800
      Read-in Center  595 is at   2.028900 -0.209800 -0.407200
      Read-in Center  596 is at   1.927400 -0.116400 -0.441200
      Read-in Center  597 is at   1.910800 -0.032400 -0.433100
      Read-in Center  598 is at   1.875900  0.044500 -0.420300
      Read-in Center  599 is at   1.829700  0.112200 -0.406900
      Read-in Center  600 is at   1.777300  0.171600 -0.396500
      Read-in Center  601 is at   1.721600  0.224600 -0.391200
      Read-in Center  602 is at   1.663400  0.273700 -0.392200
      Read-in Center  603 is at   1.601500  0.320700 -0.400300
      Read-in Center  604 is at   1.533800  0.365900 -0.415400
      Read-in Center  605 is at   1.457800  0.408200 -0.437100
      Read-in Center  606 is at   1.371500  0.443800 -0.463800
      Read-in Center  607 is at   1.275600  0.463800 -0.489900
      Read-in Center  608 is at   1.176600  0.457300 -0.507500
      Read-in Center  609 is at   1.087100  0.415300 -0.507900
      Read-in Center  610 is at   1.018700  0.343400 -0.491000
      Read-in Center  611 is at   0.972600  0.257000 -0.465800
      Read-in Center  612 is at   0.943300  0.168700 -0.441200
      Read-in Center  613 is at   1.869400 -0.318900  0.427400
      Read-in Center  614 is at   1.908400 -0.243200  0.438200
      Read-in Center  615 is at   1.926900 -0.159400  0.442200
      Read-in Center  616 is at   1.921700 -0.073800  0.437900
      Read-in Center  617 is at   1.895100  0.007100  0.426900
      Read-in Center  618 is at   0.902500 -0.325800 -0.442000
      Read-in Center  619 is at   0.917300 -0.417900 -0.466700
      Read-in Center  620 is at   0.949100 -0.510600 -0.491800
      Read-in Center  621 is at   1.005600 -0.592300 -0.508200
      Read-in Center  622 is at   1.087600 -0.647300 -0.507200
      Read-in Center  623 is at   1.184500 -0.669100 -0.489100
      Read-in Center  624 is at   1.282200 -0.664600 -0.462900
      Read-in Center  625 is at   1.372800 -0.643300 -0.436300
      Read-in Center  626 is at   1.454500 -0.614100 -0.414700
      Read-in Center  627 is at   1.528600 -0.580700 -0.399800
      Read-in Center  628 is at   1.597300 -0.544500 -0.392000
      Read-in Center  629 is at   1.662800 -0.505600 -0.391300
      Read-in Center  630 is at   1.726400 -0.462300 -0.396800
      Read-in Center  631 is at   1.787800 -0.412200 -0.407400
      Read-in Center  632 is at   1.844400 -0.352700 -0.420700
      Read-in Center  633 is at   1.891100 -0.282300 -0.433400
      Read-in Center  634 is at   1.920600 -0.201900 -0.441300
      Read-in Center  635 is at   1.836600 -0.116400 -0.471200
      Read-in Center  636 is at   1.824200 -0.038300 -0.465500
      Read-in Center  637 is at   1.795300  0.034200 -0.456300
      Read-in Center  638 is at   1.754500  0.099000 -0.447100
      Read-in Center  639 is at   1.706000  0.156100 -0.441000
      Read-in Center  640 is at   1.651800  0.206800 -0.440200
      Read-in Center  641 is at   1.592500  0.252400 -0.445900
      Read-in Center  642 is at   1.527100  0.292800 -0.458200
      Read-in Center  643 is at   1.454100  0.326600 -0.476000
      Read-in Center  644 is at   1.373200  0.349400 -0.496500
      Read-in Center  645 is at   1.286600  0.354700 -0.514500
      Read-in Center  646 is at   1.200700  0.336100 -0.524000
      Read-in Center  647 is at   1.124400  0.292200 -0.521300
      Read-in Center  648 is at   1.064400  0.228500 -0.508100
      Read-in Center  649 is at   1.021600  0.154200 -0.490200
      Read-in Center  650 is at   1.783600 -0.304000  0.460400
      Read-in Center  651 is at   1.818400 -0.233500  0.468700
      Read-in Center  652 is at   1.835400 -0.156100  0.471800
      Read-in Center  653 is at   1.832900 -0.076900  0.469200
      Read-in Center  654 is at   1.811500 -0.001200  0.461100
      Read-in Center  655 is at   0.980300 -0.315700 -0.489100
      Read-in Center  656 is at   1.009000 -0.396200 -0.506900
      Read-in Center  657 is at   1.056200 -0.469800 -0.520700
      Read-in Center  658 is at   1.122900 -0.527300 -0.524300
      Read-in Center  659 is at   1.203800 -0.561600 -0.515500
      Read-in Center  660 is at   1.290100 -0.572300 -0.497900
      Read-in Center  661 is at   1.374000 -0.564300 -0.477500
      Read-in Center  662 is at   1.452000 -0.543800 -0.459400
      Read-in Center  663 is at   1.523700 -0.515200 -0.446600
      Read-in Center  664 is at   1.590100 -0.480500 -0.440400
      Read-in Center  665 is at   1.652100 -0.440000 -0.440800
      Read-in Center  666 is at   1.709900 -0.392300 -0.446500
      Read-in Center  667 is at   1.761400 -0.335800 -0.455600
      Read-in Center  668 is at   1.802900 -0.269800 -0.464900
      Read-in Center  669 is at   1.829300 -0.195400 -0.471000
      Read-in Center  670 is at   1.754800 -0.116400 -0.496500
      Read-in Center  671 is at   1.744200 -0.042000 -0.492600
      Read-in Center  672 is at   1.717000  0.027400 -0.486400
      Read-in Center  673 is at   1.677000  0.089200 -0.481300
      Read-in Center  674 is at   1.627500  0.142800 -0.480100
      Read-in Center  675 is at   1.570200  0.188500 -0.484600
      Read-in Center  676 is at   1.505300  0.225800 -0.495200
      Read-in Center  677 is at   1.432900  0.252200 -0.510100
      Read-in Center  678 is at   1.354200  0.263400 -0.525700
      Read-in Center  679 is at   1.273600  0.254500 -0.536700
      Read-in Center  680 is at   1.198200  0.222900 -0.539200
      Read-in Center  681 is at   1.135100  0.171300 -0.532800
      Read-in Center  682 is at   1.087800  0.106200 -0.521000
      Read-in Center  683 is at   1.056100  0.034100 -0.509200
      Read-in Center  684 is at   1.037400 -0.040500 -0.502000
      Read-in Center  685 is at   1.029900 -0.116400 -0.501200
      Read-in Center  686 is at   1.033600 -0.193000 -0.507300
      Read-in Center  687 is at   1.049900 -0.269600 -0.518500
      Read-in Center  688 is at   1.082200 -0.343000 -0.530600
      Read-in Center  689 is at   1.132300 -0.407100 -0.538600
      Read-in Center  690 is at   1.198600 -0.454900 -0.538100
      Read-in Center  691 is at   1.275500 -0.481600 -0.528500
      Read-in Center  692 is at   1.355100 -0.487400 -0.513400
      Read-in Center  693 is at   1.431900 -0.476200 -0.498000
      Read-in Center  694 is at   1.503300 -0.452400 -0.486300
      Read-in Center  695 is at   1.568600 -0.418700 -0.480500
      Read-in Center  696 is at   1.627700 -0.375900 -0.480700
      Read-in Center  697 is at   1.679300 -0.323600 -0.485200
      Read-in Center  698 is at   1.720200 -0.261600 -0.491400
      Read-in Center  699 is at   1.746600 -0.191300 -0.496000
      Read-in Center  700 is at   1.678600 -0.116400 -0.517500
      Read-in Center  701 is at   1.668500 -0.045900 -0.515300
      Read-in Center  702 is at   1.640900  0.019300 -0.512200
      Read-in Center  703 is at   1.599000  0.076000 -0.511200
      Read-in Center  704 is at   1.545700  0.122600 -0.514800
      Read-in Center  705 is at   1.483000  0.157300 -0.523400
      Read-in Center  706 is at   1.412600  0.177200 -0.535100
      Read-in Center  707 is at   1.337900  0.178400 -0.546000
      Read-in Center  708 is at   1.265000  0.158000 -0.551600
      Read-in Center  709 is at   1.201300  0.116600 -0.550100
      Read-in Center  710 is at   1.152400  0.059300 -0.543500
      Read-in Center  711 is at   1.120000 -0.007800 -0.536300
      Read-in Center  712 is at   1.103500 -0.079700 -0.532700
      Read-in Center  713 is at   1.102500 -0.153200 -0.534600
      Read-in Center  714 is at   1.117600 -0.225900 -0.540900
      Read-in Center  715 is at   1.150300 -0.293500 -0.548200
      Read-in Center  716 is at   1.200700 -0.350200 -0.551800
      Read-in Center  717 is at   1.265700 -0.389300 -0.548600
      Read-in Center  718 is at   1.338600 -0.407500 -0.539100
      Read-in Center  719 is at   1.412300 -0.405600 -0.527200
      Read-in Center  720 is at   1.482000 -0.386800 -0.517200
      Read-in Center  721 is at   1.544900 -0.354000 -0.511900
      Read-in Center  722 is at   1.599100 -0.308900 -0.511500
      Read-in Center  723 is at   1.641800 -0.252600 -0.514200
      Read-in Center  724 is at   1.669400 -0.187100 -0.517000
      Read-in Center  725 is at   1.605900 -0.116400 -0.535100
      Read-in Center  726 is at   1.594200 -0.047700 -0.534300
      Read-in Center  727 is at   1.561100  0.013500 -0.534400
      Read-in Center  728 is at   1.510600  0.061900 -0.537900
      Read-in Center  729 is at   1.447100  0.093000 -0.545500
      Read-in Center  730 is at   1.376000  0.102400 -0.554400
      Read-in Center  731 is at   1.305000  0.086800 -0.560300
      Read-in Center  732 is at   1.243800  0.046900 -0.560600
      Read-in Center  733 is at   1.200100 -0.011400 -0.557300
      Read-in Center  734 is at   1.177500 -0.080200 -0.554700
      Read-in Center  735 is at   1.177100 -0.152600 -0.555700
      Read-in Center  736 is at   1.199400 -0.221700 -0.559200
      Read-in Center  737 is at   1.243600 -0.279800 -0.561100
      Read-in Center  738 is at   1.305400 -0.318700 -0.558000
      Read-in Center  739 is at   1.376100 -0.333400 -0.550000
      Read-in Center  740 is at   1.446700 -0.324100 -0.541200
      Read-in Center  741 is at   1.510100 -0.293900 -0.535600
      Read-in Center  742 is at   1.561000 -0.246200 -0.534000
      Read-in Center  743 is at   1.594400 -0.185100 -0.534700
      Read-in Center  744 is at   1.535200 -0.116400 -0.549600
      Read-in Center  745 is at   1.519200 -0.050700 -0.550200
      Read-in Center  746 is at   1.474900  0.000600 -0.553600
      Read-in Center  747 is at   1.411400  0.026400 -0.560000
      Read-in Center  748 is at   1.342600  0.019500 -0.565800
      Read-in Center  749 is at   1.285000 -0.019700 -0.567600
      Read-in Center  750 is at   1.252800 -0.081500 -0.567000
      Read-in Center  751 is at   1.252700 -0.151200 -0.567200
      Read-in Center  752 is at   1.285100 -0.213000 -0.567400
      Read-in Center  753 is at   1.342700 -0.251800 -0.564200
      Read-in Center  754 is at   1.411400 -0.258500 -0.557600
      Read-in Center  755 is at   1.474600 -0.233000 -0.552000
      Read-in Center  756 is at   1.519100 -0.182000 -0.549800
      Read-in Center  757 is at   1.394100 -0.116400 -0.568400
      Read-in Center  758 is at   0.797800  1.149100  0.568400
      Read-in Center  759 is at   0.869000  1.149100  0.563200
      Read-in Center  760 is at   0.842000  1.204500  0.560800
      Read-in Center  761 is at   0.782000  1.218400  0.562600
      Read-in Center  762 is at   0.733300  1.180200  0.567400
      Read-in Center  763 is at   0.732900  1.117800  0.570600
      Read-in Center  764 is at   0.781800  1.078800  0.570800
      Read-in Center  765 is at   0.842600  1.093000  0.568100
      Read-in Center  766 is at   0.939800  1.149100  0.552800
      Read-in Center  767 is at   0.922900  1.214700  0.550000
      Read-in Center  768 is at   0.878000  1.265200  0.549500
      Read-in Center  769 is at   0.814900  1.289300  0.550000
      Read-in Center  770 is at   0.747500  1.281800  0.552800
      Read-in Center  771 is at   0.690400  1.244200  0.558800
      Read-in Center  772 is at   0.657000  1.183800  0.565100
      Read-in Center  773 is at   0.656300  1.114200  0.567600
      Read-in Center  774 is at   0.688800  1.052500  0.567100
      Read-in Center  775 is at   0.746200  1.013000  0.567100
      Read-in Center  776 is at   0.815400  1.004400  0.567600
      Read-in Center  777 is at   0.880200  1.029700  0.565000
      Read-in Center  778 is at   0.924800  1.082400  0.558800
      Read-in Center  779 is at   1.010100  1.149100  0.536200
      Read-in Center  780 is at   0.997800  1.217700  0.534000
      Read-in Center  781 is at   0.964800  1.279100  0.534600
      Read-in Center  782 is at   0.913700  1.326400  0.535100
      Read-in Center  783 is at   0.849800  1.354200  0.534400
      Read-in Center  784 is at   0.780400  1.359800  0.534200
      Read-in Center  785 is at   0.712400  1.343800  0.537000
      Read-in Center  786 is at   0.651900  1.307500  0.544000
      Read-in Center  787 is at   0.605300  1.253300  0.553000
      Read-in Center  788 is at   0.579300  1.185600  0.559700
      Read-in Center  789 is at   0.578800  1.112500  0.560900
      Read-in Center  790 is at   0.603600  1.044000  0.557900
      Read-in Center  791 is at   0.649000  0.987400  0.554900
      Read-in Center  792 is at   0.709500  0.947800  0.555300
      Read-in Center  793 is at   0.779600  0.928700  0.558500
      Read-in Center  794 is at   0.852300  0.933700  0.561100
      Read-in Center  795 is at   0.918900  0.963800  0.558900
      Read-in Center  796 is at   0.970100  1.015000  0.551500
      Read-in Center  797 is at   1.001000  1.079300  0.542600
      Read-in Center  798 is at   1.079500  1.149100  0.512400
      Read-in Center  799 is at   1.070100  1.219000  0.511300
      Read-in Center  800 is at   1.045300  1.285100  0.513700
      Read-in Center  801 is at   1.004900  1.343500  0.516700
      Read-in Center  802 is at   0.950300  1.389400  0.517600
      Read-in Center  803 is at   0.885500  1.418800  0.515800
      Read-in Center  804 is at   0.815500  1.430400  0.512700
      Read-in Center  805 is at   0.745200  1.425100  0.511100
      Read-in Center  806 is at   0.677600  1.404700  0.513800
      Read-in Center  807 is at   0.615000  1.370000  0.521700
      Read-in Center  808 is at   0.560800  1.321400  0.533100
      Read-in Center  809 is at   0.519600  1.259200  0.544400
      Read-in Center  810 is at   0.497300  1.187100  0.551100
      Read-in Center  811 is at   0.497400  1.111100  0.550800
      Read-in Center  812 is at   0.519400  1.038800  0.544700
      Read-in Center  813 is at   0.558900  0.975400  0.537400
      Read-in Center  814 is at   0.611100  0.923300  0.533000
      Read-in Center  815 is at   0.672800  0.883500  0.533900
      Read-in Center  816 is at   0.742200  0.857600  0.539700
      Read-in Center  817 is at   0.816700  0.848900  0.547100
      Read-in Center  818 is at   0.891600  0.860700  0.551700
      Read-in Center  819 is at   0.959800  0.893900  0.549700
      Read-in Center  820 is at   1.014600  0.945500  0.541000
      Read-in Center  821 is at   1.052700  1.008900  0.529100
      Read-in Center  822 is at   1.074000  1.078200  0.518500
      Read-in Center  823 is at   1.146900  1.149100  0.480500
      Read-in Center  824 is at   1.139400  1.221700  0.480600
      Read-in Center  825 is at   1.119800  1.292500  0.485200
      Read-in Center  826 is at   1.086700  1.358900  0.491400
      Read-in Center  827 is at   1.039000  1.416900  0.496000
      Read-in Center  828 is at   0.978200  1.461500  0.496500
      Read-in Center  829 is at   0.908400  1.489400  0.492600
      Read-in Center  830 is at   0.834800  1.500500  0.486400
      Read-in Center  831 is at   0.761300  1.496800  0.481300
      Read-in Center  832 is at   0.690000  1.480800  0.480100
      Read-in Center  833 is at   0.621800  1.454000  0.484600
      Read-in Center  834 is at   0.557100  1.416400  0.495200
      Read-in Center  835 is at   0.498000  1.366900  0.510100
      Read-in Center  836 is at   0.449000  1.304400  0.525600
      Read-in Center  837 is at   0.416400  1.230200  0.536700
      Read-in Center  838 is at   0.406000  1.149100  0.539200
      Read-in Center  839 is at   0.419200  1.068600  0.532800
      Read-in Center  840 is at   0.452000  0.995100  0.521000
      Read-in Center  841 is at   0.498500  0.931600  0.509200
      Read-in Center  842 is at   0.553800  0.878100  0.501900
      Read-in Center  843 is at   0.615800  0.833700  0.501200
      Read-in Center  844 is at   0.684000  0.798600  0.507200
      Read-in Center  845 is at   0.758500  0.774400  0.518500
      Read-in Center  846 is at   0.838100  0.765700  0.530600
      Read-in Center  847 is at   0.918800  0.776900  0.538600
      Read-in Center  848 is at   0.993300  0.810500  0.538100
      Read-in Center  849 is at   1.054800  0.863700  0.528500
      Read-in Center  850 is at   1.099600  0.929800  0.513400
      Read-in Center  851 is at   1.128400  1.001900  0.498000
      Read-in Center  852 is at   1.143400  1.075600  0.486300
      Read-in Center  853 is at   1.211000  1.149100  0.440000
      Read-in Center  854 is at   1.205600  1.223100  0.441300
      Read-in Center  855 is at   1.191600  1.296900  0.447900
      Read-in Center  856 is at   1.166500  1.369300  0.457300
      Read-in Center  857 is at   1.127600  1.437100  0.466300
      Read-in Center  858 is at   1.073900  1.495200  0.471500
      Read-in Center  859 is at   1.007300  1.538300  0.470700
      Read-in Center  860 is at   0.932500  1.563600  0.464100
      Read-in Center  861 is at   0.855200  1.572200  0.454700
      Read-in Center  862 is at   0.779100  1.567300  0.445800
      Read-in Center  863 is at   0.705800  1.552300  0.440400
      Read-in Center  864 is at   0.635200  1.529600  0.440600
      Read-in Center  865 is at   0.566300  1.499800  0.447500
      Read-in Center  866 is at   0.498700  1.461900  0.460900
      Read-in Center  867 is at   0.433700  1.413700  0.479400
      Read-in Center  868 is at   0.375000  1.352700  0.499800
      Read-in Center  869 is at   0.330000  1.278200  0.516800
      Read-in Center  870 is at   0.307300  1.193200  0.524500
      Read-in Center  871 is at   0.311700  1.105300  0.519700
      Read-in Center  872 is at   0.340500  1.022800  0.505300
      Read-in Center  873 is at   0.385600  0.950600  0.487300
      Read-in Center  874 is at   1.148800  1.404100 -0.462000
      Read-in Center  875 is at   1.102500  1.467800 -0.469600
      Read-in Center  876 is at   1.041900  1.518800 -0.471800
      Read-in Center  877 is at   0.970600  1.553200 -0.468000
      Read-in Center  878 is at   0.698600  0.714200  0.475000
      Read-in Center  879 is at   0.777100  0.687600  0.491900
      Read-in Center  880 is at   0.862100  0.674800  0.509700
      Read-in Center  881 is at   0.949300  0.682800  0.522100
      Read-in Center  882 is at   1.030800  0.716000  0.523700
      Read-in Center  883 is at   1.098300  0.772400  0.513100
      Read-in Center  884 is at   1.147600  0.843500  0.494600
      Read-in Center  885 is at   1.180100  0.920700  0.474200
      Read-in Center  886 is at   1.199400  0.998300  0.456800
      Read-in Center  887 is at   1.209100  1.074400  0.445100
      Read-in Center  888 is at   1.270200  1.149100  0.390800
      Read-in Center  889 is at   1.267100  1.225400  0.393300
      Read-in Center  890 is at   1.258300  1.302800  0.401600
      Read-in Center  891 is at   1.240800  1.381600  0.413900
      Read-in Center  892 is at   1.210900  1.459500  0.427400
      Read-in Center  893 is at   1.164800  1.531100  0.438300
      Read-in Center  894 is at   1.101600  1.589100  0.442300
      Read-in Center  895 is at   1.024800  1.627400  0.437900
      Read-in Center  896 is at   0.941400  1.644800  0.427000
      Read-in Center  897 is at   0.858100  1.645200  0.413400
      Read-in Center  898 is at   0.778300  1.633700  0.401200
      Read-in Center  899 is at   0.702800  1.614700  0.393100
      Read-in Center  900 is at   0.630300  1.590800  0.390900
      Read-in Center  901 is at   0.558900  1.563000  0.395400
      Read-in Center  902 is at   0.486800  1.530100  0.406900
      Read-in Center  903 is at   0.412900  1.490100  0.425500
      Read-in Center  904 is at   0.338100  1.439800  0.449900
      Read-in Center  905 is at   0.267200  1.375200  0.477200
      Read-in Center  906 is at   0.210500  1.293800  0.500400
      Read-in Center  907 is at   0.183200  1.198700  0.510100
      Read-in Center  908 is at   0.194000  1.100300  0.501100
      Read-in Center  909 is at   0.235900  1.010600  0.478800
      Read-in Center  910 is at   0.294100  0.934400  0.453000
      Read-in Center  911 is at   1.227600  1.420800 -0.420600
      Read-in Center  912 is at   1.189900  1.496500 -0.433300
      Read-in Center  913 is at   1.135100  1.562200 -0.441200
      Read-in Center  914 is at   1.064500  1.611100 -0.441300
      Read-in Center  915 is at   0.983400  1.638400 -0.433000
      Read-in Center  916 is at   0.899400  1.646700 -0.420200
      Read-in Center  917 is at   0.775700  0.600800  0.453900
      Read-in Center  918 is at   0.867700  0.573600  0.479600
      Read-in Center  919 is at   0.966600  0.566500  0.501700
      Read-in Center  920 is at   1.062200  0.592000  0.510100
      Read-in Center  921 is at   1.141100  0.651800  0.499800
      Read-in Center  922 is at   1.196600  0.733900  0.476300
      Read-in Center  923 is at   1.231800  0.823000  0.449100
      Read-in Center  924 is at   1.252500  0.910400  0.424800
      Read-in Center  925 is at   1.263800  0.993500  0.406400
      Read-in Center  926 is at   1.269300  1.072500  0.395100
      Read-in Center  927 is at   1.322900  1.149100  0.333300
      Read-in Center  928 is at   1.322400  1.226300  0.336500
      Read-in Center  929 is at   1.319300  1.306000  0.345600
      Read-in Center  930 is at   1.311000  1.389600  0.359600
      Read-in Center  931 is at   1.293300  1.476900  0.377000
      Read-in Center  932 is at   1.260600  1.563700  0.394300
      Read-in Center  933 is at   1.207200  1.641000  0.406100
      Read-in Center  934 is at   1.132200  1.696900  0.407300
      Read-in Center  935 is at   1.042600  1.725100  0.397200
      Read-in Center  936 is at   0.949500  1.729100  0.380500
      Read-in Center  937 is at   0.860400  1.717400  0.362900
      Read-in Center  938 is at   0.777800  1.697000  0.348000
      Read-in Center  939 is at   0.701200  1.672500  0.337800
      Read-in Center  940 is at   0.628100  1.646500  0.333500
      Read-in Center  941 is at   0.556300  1.618900  0.335300
      Read-in Center  942 is at   0.482500  1.589800  0.343900
      Read-in Center  943 is at   0.404300  1.557300  0.359800
      Read-in Center  944 is at   0.319300  1.518600  0.383700
      Read-in Center  945 is at   0.226000  1.470000  0.416100
      Read-in Center  946 is at   0.126400  1.405900  0.456200
      Read-in Center  947 is at   0.035600  1.318900  0.495600
      Read-in Center  948 is at  -0.007500  1.208000  0.512500
      Read-in Center  949 is at   0.023900  1.092400  0.492500
      Read-in Center  950 is at   0.102400  0.994200  0.452100
      Read-in Center  951 is at   0.190100  0.916600  0.412900
      Read-in Center  952 is at   0.271700  0.853800  0.382900
      Read-in Center  953 is at   1.279100  1.520600 -0.385800
      Read-in Center  954 is at   1.236500  1.604100 -0.401100
      Read-in Center  955 is at   1.172000  1.672000 -0.408100
      Read-in Center  956 is at   1.088400  1.714300 -0.403300
      Read-in Center  957 is at   0.995900  1.729500 -0.389200
      Read-in Center  958 is at   0.689600  0.563300  0.378000
      Read-in Center  959 is at   0.774500  0.509000  0.406500
      Read-in Center  960 is at   0.874400  0.453600  0.444000
      Read-in Center  961 is at   0.991300  0.409000  0.485500
      Read-in Center  962 is at   1.113000  0.407500  0.511300
      Read-in Center  963 is at   1.209500  0.474600  0.501400
      Read-in Center  964 is at   1.266000  0.586600  0.464400
      Read-in Center  965 is at   1.294700  0.703900  0.423400
      Read-in Center  966 is at   1.309400  0.810600  0.389300
      Read-in Center  967 is at   1.316900  0.905700  0.363800
      Read-in Center  968 is at   1.320600  0.991800  0.346500
[...]
 5030           0.684487
 5031           0.678780
 5032           0.695801
 5033           0.702171
 5034           0.704816
 5035           0.706034
 5036           0.706203
 5037           0.705116
 5038           0.702818
 5039           0.697590
 5040           0.684487
 5041           0.678848
 5042           0.695801
 5043           0.702171
 5044           0.704816
 5045           0.706034
 5046           0.705237
 5047           0.704530
 5048           0.699698
 5049           0.681030
 5050           0.700951
 5051           0.704846
 5052           0.705399
 5053           0.704609
 5054           0.702899
 5055           0.693456
 5056           0.696039
 5057           0.703594
 5058           0.704893
 5059           1.007579
 5060           1.008158
 5061           0.982026
 5062           0.971417
 5063           0.974642
 5064           0.995082
 5065           1.018900
 5066           1.023774
 5067           0.988146
 5068           0.954167
 5069           0.927330
 5070           0.920623
 5071           0.923450
 5072           0.921406
 5073           0.923213
 5074           0.943581
 5075           0.977832
 5076           1.004262
 5077           1.014271
 5078           1.014927
 5079           1.009119
 5080           0.954048
 5081           0.912970
 5082           0.870871
 5083           0.846673
 5084           0.848154
 5085           0.863262
 5086           0.872540
 5087           0.865441
 5088           0.850276
 5089           0.845513
 5090           0.865367
 5091           0.906168
 5092           0.948399
 5093           0.974405
 5094           0.980566
 5095           0.976952
 5096           0.976489
 5097           0.980115
 5098           0.976892
 5099           0.912091
 5100           0.865489
 5101           0.809622
 5102           0.764456
 5103           0.744892
 5104           0.754335
 5105           0.783137
 5106           0.812645
 5107           0.824779
 5108           0.812590
 5109           0.783243
 5110           0.754537
 5111           0.745003
 5112           0.764255
 5113           0.809716
 5114           0.865192
 5115           0.912262
 5116           0.935851
 5117           0.935077
 5118           0.920979
 5119           0.908239
 5120           0.908147
 5121           0.920632
 5122           0.935088
 5123           0.935700
 5124           0.867729
 5125           0.814367
 5126           0.746038
 5127           0.681441
 5128           0.639490
 5129           0.629681
 5130           0.651822
 5131           0.696212
 5132           0.745118
 5133           0.777403
 5134           0.780708
 5135           0.753912
 5136           0.706405
 5137           0.659874
 5138           0.632014
 5139           0.634752
 5140           0.670959
 5141           0.731940
 5142           0.801125
 5143           0.858916
 5144           0.889806
 5145           0.889825
 5146           0.866684
 5147           0.836236
 5148           0.814611
 5149           0.812216
 5150           0.830502
 5151           0.860759
 5152           0.886251
 5153           0.891920
 5154           0.824374
 5155           0.766729
 5156           0.688983
 5157           0.609542
 5158           0.547214
 5159           0.514174
 5160           0.515184
 5161           0.547831
 5162           0.605761
 5163           0.671223
 5164           0.715444
 5165           0.697103
 5166           0.704601
 5167           0.736144
 5168           0.632615
 5169           0.569446
 5170           0.525197
 5171           0.510737
 5172           0.530134
 5173           0.581643
 5174           0.656058
 5175           0.736821
 5176           0.804539
 5177           0.843741
 5178           0.847882
 5179           0.821495
 5180           0.777135
 5181           0.732199
 5182           0.702740
 5183           0.697421
 5184           0.718080
 5185           0.758159
 5186           0.804414
 5187           0.839780
 5188           0.849353
 5189           0.784955
 5190           0.723808
 5191           0.637968
 5192           0.547530
 5193           0.473403
 5194           0.428757
 5195           0.414087
 5196           0.426528
 5197           0.468117
 5198           0.536183
 5199           0.658638
 5200           0.606964
 5201           0.578680
 5202           0.578219
 5203           0.608294
 5204           0.660607
 5205           0.533506
 5206           0.466465
 5207           0.425694
 5208           0.414301
 5209           0.429853
 5210           0.475620
 5211           0.550698
 5212           0.641405
 5213           0.726675
 5214           0.786743
 5215           0.811508
 5216           0.796755
 5217           0.750764
 5218           0.689162
 5219           0.630177
 5220           0.588954
 5221           0.574823
 5222           0.590090
 5223           0.631859
 5224           0.691280
 5225           0.752513
 5226           0.797526
 5227           0.811043
 5228           0.752963
 5229           0.689372
 5230           0.600088
 5231           0.505649
 5232           0.432972
 5233           0.407290
 5234           0.421936
 5235           0.424494
 5236           0.406768
 5237           0.421872
 5238           0.484205
 5239           0.567161
 5240           0.508758
 5241           0.476641
 5242           0.470220
 5243           0.488392
 5244           0.533492
 5245           0.527774
 5246           0.450140
 5247           0.408263
 5248           0.414453
 5249           0.427709
 5250           0.412821
 5251           0.412942
 5252           0.462967
 5253           0.549581
 5254           0.644645
 5255           0.723923
 5256           0.770619
 5257           0.776180
 5258           0.741749
 5259           0.678313
 5260           0.602839
 5261           0.534670
 5262           0.488781
 5263           0.469934
 5264           0.475699
 5265           0.507072
 5266           0.564837
 5267           0.638612
 5268           0.710875
 5269           0.761940
 5270           0.778147
 5271           0.727350
 5272           0.662323
 5273           0.571235
 5274           0.478389
 5275           0.431808
 5276           0.532932
 5277           0.771678
 5278           0.868310
 5279           0.786592
 5280           0.562914
 5281           0.435798
 5282           0.472738
 5283           0.476299
 5284           0.439640
 5285           0.454444
 5286           0.509290
 5287           0.440874
 5288           0.476791
 5289           0.700249
 5290           0.851471
 5291           0.839486
 5292           0.641797
 5293           0.450440
 5294           0.447646
 5295           0.527932
 5296           0.624091
 5297           0.703273
 5298           0.746784
 5299           0.747204
 5300           0.705933
 5301           0.633266
 5302           0.548318
 5303           0.475797
 5304           0.439669
 5305           0.439896
 5306           0.443158
 5307           0.436653
 5308           0.453911
 5309           0.512820
 5310           0.595399
 5311           0.676118
 5312           0.733256
 5313           0.752405
 5314           0.708905
 5315           0.643265
 5316           0.551096
 5317           0.465950
 5318           0.491670
 5319           0.838960
 5320           0.872424
 5321           0.966882
 5322           0.838380
 5323           0.605421
 5324           0.696339
 5325           0.495932
 5326           0.661727
 5327           0.441852
 5328           0.477175
 5329           0.561689
 5330           0.565624
 5331           0.660698
 5332           0.897001
 5333           0.955243
 5334           0.844135
 5335           0.771735
 5336           0.458983
 5337           0.485639
 5338           0.577419
 5339           0.664536
 5340           0.719783
 5341           0.731335
 5342           0.698295
 5343           0.626788
 5344           0.536796
 5345           0.459601
 5346           0.449601
 5347           0.554558
 5348           0.666994
 5349           0.646518
 5350           0.516712
 5351           0.441852
 5352           0.476766
 5353           0.561516
 5354           0.649102
 5355           0.711555
 5356           0.732348
 5357           0.697272
 5358           0.632352
 5359           0.606605
 5360           0.603361
 5361           0.438834
 5362           0.519703
 5363           0.483134
 5364           0.464495
 5365           0.444642
 5366           0.443142
 5367           0.465046
 5368           0.481396
 5369           0.521067
 5370           0.438600
 5371           0.607054
 5372           0.631491
 5373           0.697197
 5374           0.721239
 5375           0.698680
 5376           0.634892
 5377           0.545586
 5378           0.462694
 5379           0.464495
 5380           0.683666
 5381           0.926225
 5382           1.008449
 5383           0.927684
 5384           0.685577
 5385           0.465229
 5386           0.462249
 5387           0.544530
 5388           0.634081
 5389           0.698299
 5390           0.720943
 5391           0.691748
 5392           0.625367
 5393           1.094358
 5394           0.722620
 5395           0.447495
 5396           0.467722
 5397           0.487175
 5398           0.513431
 5399           0.552506
 5400           0.529979
 5401           0.531522
 5402           0.550031
 5403           0.515139
 5404           0.486717
 5405           0.467174
 5406           0.447938
 5407           0.718325
 5408           1.092150
 5409           0.624805
 5410           0.691577
 5411           0.715311
 5412           0.690143
 5413           0.622649
 5414           0.529759
 5415           0.452525
 5416           0.513431
 5417           0.844245
 5418           1.091755
 5419           1.168740
 5420           1.093611
 5421           0.847011
 5422           0.515157
 5423           0.452223
 5424           0.528917
 5425           0.622053
 5426           0.689706
 5427           0.714698
 5428           0.691748
 5429           0.625367
 5430           1.094358
 5431           0.722620
 5432           0.447495
 5433           0.467722
 5434           0.487175
 5435           0.513431
 5436           0.552506
 5437           0.529979
 5438           0.531522
 5439           0.550075
 5440           0.515139
 5441           0.486717
 5442           0.467174
 5443           0.447938
 5444           0.718325
 5445           1.092150
 5446           0.624805
 5447           0.691577
 5448           0.715311
 5449           0.690143
 5450           0.622649
 5451           0.529759
 5452           0.452525
 5453           0.513431
 5454           0.844245
 5455           1.091755
 5456           1.168740
 5457           1.093611
 5458           0.847011
 5459           0.515157
 5460           0.452239
 5461           0.528917
 5462           0.622053
 5463           0.689726
 5464           0.714698
 5465           0.697272
 5466           0.632352
 5467           0.606467
 5468           0.603361
 5469           0.438825
 5470           0.519642
 5471           0.483134
 5472           0.464495
 5473           0.444642
 5474           0.443056
 5475           0.465046
 5476           0.481396
 5477           0.521067
 5478           0.438600
 5479           0.607054
 5480           0.631544
 5481           0.697197
 5482           0.721239
 5483           0.698680
 5484           0.634892
 5485           0.545586
 5486           0.462694
 5487           0.464495
 5488           0.683666
 5489           0.926514
 5490           1.008449
 5491           0.927684
 5492           0.685577
 5493           0.465229
 5494           0.462249
 5495           0.544530
 5496           0.634081
 5497           0.698299
 5498           0.720943
 5499           0.708905
 5500           0.643265
 5501           0.551096
 5502           0.465950
 5503           0.491670
 5504           0.838794
 5505           0.872424
 5506           0.966882
 5507           0.838380
 5508           0.605421
 5509           0.696267
 5510           0.495932
 5511           0.661821
 5512           0.441852
 5513           0.477175
 5514           0.561689
 5515           0.565458
 5516           0.660698
 5517           0.897001
 5518           0.955243
 5519           0.844050
 5520           0.771735
 5521           0.458983
 5522           0.485639
 5523           0.577419
 5524           0.664536
 5525           0.719783
 5526           0.731335
 5527           0.698295
 5528           0.626788
 5529           0.536796
 5530           0.459601
 5531           0.449601
 5532           0.554558
 5533           0.666994
 5534           0.646518
 5535           0.516712
 5536           0.441852
 5537           0.476766
 5538           0.561516
 5539           0.649102
 5540           0.711555
 5541           0.732348
 5542           0.727350
 5543           0.662323
 5544           0.571037
 5545           0.478389
 5546           0.431808
 5547           0.532932
 5548           0.771678
 5549           0.868310
 5550           0.786592
 5551           0.562914
 5552           0.435798
 5553           0.472738
 5554           0.476299
 5555           0.439669
 5556           0.454444
 5557           0.509290
 5558           0.440874
 5559           0.476791
 5560           0.700420
 5561           0.851471
 5562           0.839486
 5563           0.641956
 5564           0.450500
 5565           0.447646
 5566           0.527932
 5567           0.624091
 5568           0.703273
 5569           0.746784
 5570           0.747351
 5571           0.705933
 5572           0.633266
 5573           0.548318
 5574           0.475797
 5575           0.439640
 5576           0.439896
 5577           0.443308
 5578           0.436653
 5579           0.453911
 5580           0.512820
 5581           0.595399
 5582           0.676118
 5583           0.733256
 5584           0.752405
 5585           0.752963
 5586           0.689372
 5587           0.600088
 5588           0.505649
 5589           0.432972
 5590           0.407290
 5591           0.421936
 5592           0.424494
 5593           0.406768
 5594           0.421872
 5595           0.484205
 5596           0.567161
 5597           0.508758
 5598           0.476529
 5599           0.470220
 5600           0.488392
 5601           0.533492
 5602           0.527905
 5603           0.450140
 5604           0.408263
 5605           0.414453
 5606           0.427709
 5607           0.412821
 5608           0.412942
 5609           0.462967
 5610           0.549581
 5611           0.644645
 5612           0.723923
 5613           0.770619
 5614           0.776180
 5615           0.741749
 5616           0.678313
 5617           0.602839
 5618           0.534670
 5619           0.488781
 5620           0.469934
 5621           0.475699
 5622           0.507072
 5623           0.564979
 5624           0.638612
 5625           0.710875
 5626           0.761940
 5627           0.778147
 5628           0.784955
 5629           0.723808
 5630           0.637968
 5631           0.547530
 5632           0.473403
 5633           0.428757
 5634           0.414087
 5635           0.426528
 5636           0.468117
 5637           0.536183
 5638           0.658638
 5639           0.606964
 5640           0.578680
 5641           0.578219
 5642           0.608294
 5643           0.660607
 5644           0.533506
 5645           0.466465
 5646           0.425694
 5647           0.414301
 5648           0.429853
 5649           0.475620
 5650           0.550698
 5651           0.641405
 5652           0.726675
 5653           0.786743
 5654           0.811508
 5655           0.796755
 5656           0.750764
 5657           0.689162
 5658           0.630177
 5659           0.589130
 5660           0.574823
 5661           0.590090
 5662           0.631859
 5663           0.691280
 5664           0.752513
 5665           0.797526
 5666           0.811043
 5667           0.824374
 5668           0.766729
 5669           0.688983
 5670           0.609542
 5671           0.547214
 5672           0.514174
 5673           0.515184
 5674           0.547831
 5675           0.605761
 5676           0.671223
 5677           0.715444
 5678           0.697103
 5679           0.704601
 5680           0.736144
 5681           0.632615
 5682           0.569446
 5683           0.525197
 5684           0.510737
 5685           0.530134
 5686           0.581643
 5687           0.656058
 5688           0.736684
 5689           0.804539
 5690           0.843741
 5691           0.847882
 5692           0.821495
 5693           0.777135
 5694           0.732199
 5695           0.702740
 5696           0.697421
 5697           0.718080
 5698           0.758159
 5699           0.804414
 5700           0.839780
 5701           0.849353
 5702           0.867729
 5703           0.814367
 5704           0.746038
 5705           0.681441
 5706           0.639490
 5707           0.629681
 5708           0.651822
 5709           0.696212
 5710           0.745118
 5711           0.777403
 5712           0.780708
 5713           0.753912
 5714           0.706405
 5715           0.659874
 5716           0.632014
 5717           0.634752
 5718           0.670959
 5719           0.731940
 5720           0.801125
 5721           0.858916
 5722           0.889806
 5723           0.889825
 5724           0.866684
 5725           0.836236
 5726           0.814611
 5727           0.812216
 5728           0.830502
 5729           0.860759
 5730           0.886251
 5731           0.891920
 5732           0.912091
 5733           0.865489
 5734           0.809622
 5735           0.764456
 5736           0.744892
 5737           0.754335
 5738           0.783137
 5739           0.812645
 5740           0.825124
 5741           0.812590
 5742           0.783570
 5743           0.754537
 5744           0.745003
 5745           0.764255
 5746           0.809716
 5747           0.865192
 5748           0.912262
 5749           0.935851
 5750           0.935077
 5751           0.920979
 5752           0.908239
 5753           0.908147
 5754           0.920632
 5755           0.935088
 5756           0.935700
 5757           0.954048
 5758           0.912970
 5759           0.870871
 5760           0.847048
 5761           0.848154
 5762           0.863262
 5763           0.872540
 5764           0.865441
 5765           0.850276
 5766           0.845513
 5767           0.865367
 5768           0.906168
 5769           0.948399
 5770           0.974405
 5771           0.980998
 5772           0.976952
 5773           0.976489
 5774           0.980115
 5775           0.976892
 5776           0.988146
 5777           0.954167
 5778           0.927330
 5779           0.920623
 5780           0.923450
 5781           0.921406
 5782           0.923213
 5783           0.943581
 5784           0.977832
 5785           1.004262
 5786           1.014271
 5787           1.014927
 5788           1.009119
 5789           1.007579
 -----------------------------------------------------------------
 1\1\GINC-DESKTOP-2Q9IDMK\SP\RMP2-FC\6-311++G(d,p)\C6H6\BRUNO\25-Nov-20
 19\0\\#MP2/6-311++G(d,p) NoSymmetry Prop=(read, potential) density=cur
 rent\\gdb_000214_ep\\0,1\C,0,1.3941,-0.1164,0.\C,0,0.7978,1.1491,0.\C,
 0,-0.5962,1.2654,0.\C,0,-1.3941,0.1164,0.\C,0,-0.7978,-1.1491,0.\C,0,0
 .5962,-1.2654,0.\H,0,2.4728,-0.2065,0.\H,0,1.4151,2.0383,0.\H,0,-1.057
 6,2.2446,0.\H,0,-2.4728,0.2065,0.\H,0,-1.4151,-2.0383,0.\H,0,1.0576,-2
 .2446,0.\\Version=AM64L-G09RevA.02\HF=-230.7556832\MP2=-231.5841748\RM
 SD=1.597e-09\Dipole=0.,0.,0.\Quadrupole=2.0680352,2.0669179,-4.1349531
 ,0.000017,0.,0.\PG=C02H [SGH(C6H6)]\\@


 WHEN ALL ELSE FAILS, LOOK AT THE SCHRODINGER EQUATION.
     -- RUSSELL T. PACK, APRIL 1978
 Job cpu time:  0 days  0 hours  7 minutes 20.1 seconds.
 File lengths (MBytes):  RWF=   1199 Int=      0 D2E=      0 Chk=      3 Scr=      1
 Normal termination of Gaussian 09 at Mon Nov 25 10:38:42 2019.
