 Entering Gaussian System, Link 0=g09
 Initial command:
 /home/bcz/bin/g09/l1.exe /home/bcz/temp/Gau-229923.inp -scrdir=/home/bcz/temp/
 Entering Link 1 = /home/bcz/bin/g09/l1.exe PID=    229924.
  
 Copyright (c) 1988,1990,1992,1993,1995,1998,2003,2009, Gaussian, Inc.
                  All Rights Reserved.
  
 This is part of the Gaussian(R) 09 program.  It is based on
 the Gaussian(R) 03 system (copyright 2003, Gaussian, Inc.),
 the Gaussian(R) 98 system (copyright 1998, Gaussian, Inc.),
 the Gaussian(R) 94 system (copyright 1995, Gaussian, Inc.),
 the Gaussian 92(TM) system (copyright 1992, Gaussian, Inc.),
 the Gaussian 90(TM) system (copyright 1990, Gaussian, Inc.),
 the Gaussian 88(TM) system (copyright 1988, Gaussian, Inc.),
 the Gaussian 86(TM) system (copyright 1986, Carnegie Mellon
 University), and the Gaussian 82(TM) system (copyright 1983,
 Carnegie Mellon University). Gaussian is a federally registered
 trademark of Gaussian, Inc.
  
 This software contains proprietary and confidential information,
 including trade secrets, belonging to Gaussian, Inc.
  
 This software is provided under written license and may be
 used, copied, transmitted, or stored only in accord with that
 written license.
  
 The following legend is applicable only to US Government
 contracts under FAR:
  
                    RESTRICTED RIGHTS LEGEND
  
 Use, reproduction and disclosure by the US Government is
 subject to restrictions as set forth in subparagraphs (a)
 and (c) of the Commercial Computer Software - Restricted
 Rights clause in FAR 52.227-19.
  
 Gaussian, Inc.
 340 Quinnipiac St., Bldg. 40, Wallingford CT 06492
  
  
 ---------------------------------------------------------------
 Warning -- This program may not be used in any manner that
 competes with the business of Gaussian, Inc. or will provide
 assistance to any competitor of Gaussian, Inc.  The licensee
 of this program is prohibited from giving any competitor of
 Gaussian, Inc. access to this program.  By using this program,
 the user acknowledges that Gaussian, Inc. is engaged in the
 business of creating and licensing software in the field of
 computational chemistry and represents and warrants to the
 licensee that it is not a competitor of Gaussian, Inc. and that
 it will not use this program in any manner prohibited above.
 ---------------------------------------------------------------
  

 Cite this work as:
 Gaussian 09, Revision A.02,
 M. J. Frisch, G. W. Trucks, H. B. Schlegel, G. E. Scuseria, 
 M. A. Robb, J. R. Cheeseman, G. Scalmani, V. Barone, B. Mennucci, 
 G. A. Petersson, H. Nakatsuji, M. Caricato, X. Li, H. P. Hratchian, 
 A. F. Izmaylov, J. Bloino, G. Zheng, J. L. Sonnenberg, M. Hada, 
 M. Ehara, K. Toyota, R. Fukuda, J. Hasegawa, M. Ishida, T. Nakajima, 
 Y. Honda, O. Kitao, H. Nakai, T. Vreven, J. A. Montgomery, Jr., 
 J. E. Peralta, F. Ogliaro, M. Bearpark, J. J. Heyd, E. Brothers, 
 K. N. Kudin, V. N. Staroverov, R. Kobayashi, J. Normand, 
 K. Raghavachari, A. Rendell, J. C. Burant, S. S. Iyengar, J. Tomasi, 
 M. Cossi, N. Rega, J. M. Millam, M. Klene, J. E. Knox, J. B. Cross, 
 V. Bakken, C. Adamo, J. Jaramillo, R. Gomperts, R. E. Stratmann, 
 O. Yazyev, A. J. Austin, R. Cammi, C. Pomelli, J. W. Ochterski, 
 R. L. Martin, K. Morokuma, V. G. Zakrzewski, G. A. Voth, 
 P. Salvador, J. J. Dannenberg, S. Dapprich, A. D. Daniels, 
 O. Farkas, J. B. Foresman, J. V. Ortiz, J. Cioslowski, 
 and D. J. Fox, Gaussian, Inc., Wallingford CT, 2009.
 
 ******************************************
 Gaussian 09:  AM64L-G09RevA.02 11-Jun-2009
                 5-Dec-2019 
 ******************************************
 %NProcShared=8
 Will use up to    8 processors via shared memory.
 ---------------------------------------------------------
 #MP2/6-311++G(d,p) density=current prop=(potential, read)
 ---------------------------------------------------------
 1/30=1,38=1/1;
 2/12=2,17=6,18=5,40=1/2;
 3/5=4,6=6,7=1111,11=9,16=1,25=1,30=1,71=1/1,2,3;
 4//1;
 5/5=2,38=5/2;
 8/6=4,10=2/1;
 9/15=1,16=-3/6;
 10/5=1,13=10/2;
 6/7=2,8=2,9=2,10=2,14=3,15=1,22=-1/1,2;
 99/5=1,9=1/99;
 ----------
 gdb_118582
 ----------
 Symbolic Z-matrix:
 Charge =  0 Multiplicity = 1
 C                     1.1452    2.9364    0.274 
 C                     0.4841    1.7654   -0.4305 
 O                     0.7863    0.5619    0.3516 
 C                     0.2956   -0.7063   -0.1841 
 C                     1.2716   -1.7924    0.2856 
 C                     2.6937   -1.6046   -0.2568 
 C                    -1.1229   -0.9824    0.2956 
 O                    -2.0405   -0.0815   -0.3882 
 C                    -3.4201   -0.2191    0.0386 
 H                     2.2229    2.7853    0.349 
 H                     0.9631    3.8631   -0.2764 
 H                     0.7464    3.0518    1.2827 
 H                    -0.5967    1.8901   -0.5017 
 H                     0.8849    1.6375   -1.4438 
 H                     0.292    -0.655    -1.2804 
 H                     1.2894   -1.7876    1.3797 
 H                     0.8832   -2.7682   -0.0244 
 H                     3.359    -2.3871    0.1148 
 H                     2.7085   -1.6467   -1.3497 
 H                     3.0946   -0.6396    0.0513 
 H                    -1.4038   -2.0205    0.0738 
 H                    -1.1792   -0.8215    1.3783 
 H                    -3.5272    0.0083    1.1045 
 H                    -3.994     0.4954   -0.5454 
 H                    -3.7929   -1.2311   -0.1545 
 
                          Input orientation:                          
 ---------------------------------------------------------------------
 Center     Atomic      Atomic             Coordinates (Angstroms)
 Number     Number       Type             X           Y           Z
 ---------------------------------------------------------------------
      1          6           0        1.145200    2.936400    0.274000
      2          6           0        0.484100    1.765400   -0.430500
      3          8           0        0.786300    0.561900    0.351600
      4          6           0        0.295600   -0.706300   -0.184100
      5          6           0        1.271600   -1.792400    0.285600
      6          6           0        2.693700   -1.604600   -0.256800
      7          6           0       -1.122900   -0.982400    0.295600
      8          8           0       -2.040500   -0.081500   -0.388200
      9          6           0       -3.420100   -0.219100    0.038600
     10          1           0        2.222900    2.785300    0.349000
     11          1           0        0.963100    3.863100   -0.276400
     12          1           0        0.746400    3.051800    1.282700
     13          1           0       -0.596700    1.890100   -0.501700
     14          1           0        0.884900    1.637500   -1.443800
     15          1           0        0.292000   -0.655000   -1.280400
     16          1           0        1.289400   -1.787600    1.379700
     17          1           0        0.883200   -2.768200   -0.024400
     18          1           0        3.359000   -2.387100    0.114800
     19          1           0        2.708500   -1.646700   -1.349700
     20          1           0        3.094600   -0.639600    0.051300
     21          1           0       -1.403800   -2.020500    0.073800
     22          1           0       -1.179200   -0.821500    1.378300
     23          1           0       -3.527200    0.008300    1.104500
     24          1           0       -3.994000    0.495400   -0.545400
     25          1           0       -3.792900   -1.231100   -0.154500
 ---------------------------------------------------------------------
                    Distance matrix (angstroms):
                    1          2          3          4          5
     1  C    0.000000
     2  C    1.518096   0.000000
     3  O    2.402724   1.466771   0.000000
     4  C    3.768413   2.491093   1.461538   0.000000
     5  C    4.730503   3.713610   2.404704   1.533886   0.000000
     6  C    4.827037   4.033535   2.949923   2.561857   1.533569
     7  C    4.527884   3.264977   2.456225   1.522657   2.527811
     8  O    4.437895   3.128328   2.992000   2.426808   3.788297
     9  C    5.554688   4.404665   4.289724   3.754116   4.954627
    10  H    1.090822   2.161306   2.647137   4.023674   4.675931
    11  H    1.093103   2.157205   3.365050   4.618819   5.691722
    12  H    1.090795   2.158398   2.658598   4.059315   4.973562
    13  H    2.175010   1.090297   2.098791   2.763759   4.203712
    14  H    2.169270   1.097167   2.095256   2.725347   3.860644
    15  H    4.005279   2.572464   2.094899   1.097506   2.169251
    16  H    4.853817   4.068064   2.613475   2.145302   1.094255
    17  H    5.718404   4.569215   3.352660   2.149932   1.095053
    18  H    5.767660   5.079927   3.920645   3.506972   2.177172
    19  H    5.107359   4.175561   3.386324   2.839905   2.181769
    20  H    4.078913   3.582020   2.619548   2.809673   2.169602
    21  H    5.577485   4.260461   3.397426   2.163699   2.693446
    22  H    4.554572   3.567965   2.613637   2.151604   2.853605
    23  H    5.576273   4.640491   4.413572   4.096943   5.190530
    24  H    5.748154   4.656123   4.864185   4.469372   5.800960
    25  H    6.475840   5.229524   4.943689   4.122150   5.114480
                    6          7          8          9         10
     6  C    0.000000
     7  C    3.906240   0.000000
     8  O    4.974912   1.456432   0.000000
     9  C    6.275781   2.434297   1.450651   0.000000
    10  H    4.456441   5.039126   5.190239   6.400486   0.000000
    11  H    5.735077   5.306359   4.959232   5.998002   1.771969
    12  H    5.276751   4.554494   4.514010   5.441167   1.767164
    13  H    4.806208   3.027182   2.446354   3.565422   3.078184
    14  H    3.897684   3.731039   3.553480   4.917062   2.514323
    15  H    2.778068   2.143107   2.562319   3.963516   4.268370
    16  H    2.164181   2.764563   4.138174   5.141802   4.779663
    17  H    2.164691   2.704796   3.987321   5.002027   5.724997
    18  H    1.092253   4.700351   5.892656   7.117740   5.300877
    19  H    1.093811   4.222314   5.091889   6.444002   4.771165
    20  H    1.089436   4.238455   5.184003   6.528269   3.546608
    21  H    4.131801   1.098067   2.092499   2.704024   6.026973
    22  H    4.276231   1.096037   2.099990   2.679424   5.063867
    23  H    6.569184   2.723319   2.108671   1.095137   6.430098
    24  H    7.015598   3.336823   2.042961   1.086705   6.685315
    25  H    6.498150   2.719070   2.108815   1.095633   7.250850
                   11         12         13         14         15
    11  H    0.000000
    12  H    1.770864   0.000000
    13  H    2.525166   2.517449   0.000000
    14  H    2.514405   3.074610   1.773837   0.000000
    15  H    4.676710   4.529495   2.806011   2.373560   0.000000
    16  H    5.897419   4.870734   4.541202   4.457251   3.058385
    17  H    6.636567   5.966542   4.910975   4.628703   2.528373
    18  H    6.705101   6.145836   5.858504   4.974717   3.788567
    19  H    5.878460   5.731952   4.914510   3.757704   2.612995
    20  H    4.992493   4.544978   4.508978   3.507604   3.102939
    21  H    6.351504   5.640304   4.034279   4.574081   2.564017
    22  H    5.410449   4.326607   3.350594   4.274510   3.043162
    23  H    6.076937   5.249600   3.835216   5.349276   4.551264
    24  H    5.998884   5.687576   3.672703   5.090695   4.498160
    25  H    6.970313   6.404219   4.480863   5.636752   4.276207
                   16         17         18         19         20
    16  H    0.000000
    17  H    1.760134   0.000000
    18  H    2.498523   2.508824   0.000000
    19  H    3.079500   2.519107   1.765249   0.000000
    20  H    2.518193   3.070335   1.768529   1.768085   0.000000
    21  H    3.002156   2.408125   4.777064   4.367733   4.705634
    22  H    2.650913   3.163969   4.964151   4.820493   4.478770
    23  H    5.147876   5.332447   7.357798   6.902614   6.736263
    24  H    6.068971   5.891486   7.925357   7.082302   7.203647
    25  H    5.337906   4.923973   7.249726   6.623400   6.915915
                   21         22         23         24         25
    21  H    0.000000
    22  H    1.785992   0.000000
    23  H    3.112427   2.505322   0.000000
    24  H    3.663645   3.654852   1.782509   0.000000
    25  H    2.526474   3.057560   1.786558   1.781585   0.000000
 Stoichiometry    C7H16O2
 Framework group  C1[X(C7H16O2)]
 Deg. of freedom    69
 Full point group                 C1      NOp   1
 Largest Abelian subgroup         C1      NOp   1
 Largest concise Abelian subgroup C1      NOp   1
                         Standard orientation:                         
 ---------------------------------------------------------------------
 Center     Atomic      Atomic             Coordinates (Angstroms)
 Number     Number       Type             X           Y           Z
 ---------------------------------------------------------------------
      1          6           0        1.145251    2.936389    0.274008
      2          6           0        0.484132    1.765400   -0.430492
      3          8           0        0.786312    0.561895    0.351608
      4          6           0        0.295591   -0.706297   -0.184092
      5          6           0        1.271573   -1.792413    0.285608
      6          6           0        2.693676   -1.604636   -0.256792
      7          6           0       -1.122913   -0.982373    0.295608
      8          8           0       -2.040499   -0.081458   -0.388192
      9          6           0       -3.420101   -0.219036    0.038608
     10          1           0        2.222948    2.785272    0.349008
     11          1           0        0.963166    3.863092   -0.276392
     12          1           0        0.746453    3.051796    1.282708
     13          1           0       -0.596666    1.890118   -0.501692
     14          1           0        0.884930    1.637494   -1.443792
     15          1           0        0.291992   -0.654997   -1.280392
     16          1           0        1.289373   -1.787613    1.379708
     17          1           0        0.883157   -2.768206   -0.024392
     18          1           0        3.358964   -2.387147    0.114808
     19          1           0        2.708476   -1.646736   -1.349692
     20          1           0        3.094592   -0.639643    0.051308
     21          1           0       -1.403830   -2.020469    0.073808
     22          1           0       -1.179211   -0.821473    1.378308
     23          1           0       -3.527197    0.008366    1.104508
     24          1           0       -3.993989    0.495474   -0.545392
     25          1           0       -3.792918   -1.231030   -0.154492
 ---------------------------------------------------------------------
 Rotational constants (GHZ):      1.5654967      1.0822215      0.6809597
 Standard basis: 6-311++G(d,p) (5D, 7F)
 There are   310 symmetry adapted basis functions of A   symmetry.
 Integral buffers will be    131072 words long.
 Raffenetti 1 integral format.
 Two-electron integral symmetry is turned on.
   310 basis functions,   468 primitive gaussians,   319 cartesian basis functions
    37 alpha electrons       37 beta electrons
       nuclear repulsion energy       493.8386561865 Hartrees.
 NAtoms=   25 NActive=   25 NUniq=   25 SFac= 7.50D-01 NAtFMM=   80 NAOKFM=F Big=F
 One-electron integrals computed using PRISM.
 NBasis=   310 RedAO= T  NBF=   310
 NBsUse=   310 1.00D-06 NBFU=   310
 Harris functional with IExCor=  205 diagonalized for initial guess.
 ExpMin= 3.60D-02 ExpMax= 8.59D+03 ExpMxC= 1.30D+03 IAcc=3 IRadAn=         0 AccDes= 0.00D+00
 HarFok:  IExCor=  205 AccDes= 0.00D+00 IRadAn=         0 IDoV= 1
 ScaDFX=  1.000000  1.000000  1.000000  1.000000
 FoFCou: FMM=F IPFlag=           0 FMFlag=      100000 FMFlg1=           0
         NFxFlg=           0 DoJE=T BraDBF=F KetDBF=T FulRan=T
         Omega=  0.000000  0.000000  1.000000  0.000000  0.000000 ICntrl=     500 IOpCl=  0
         NMat0=    1 NMatS0=    1 NMatT0=    0 NMatD0=    1 NMtDS0=    0 NMtDT0=    0
         I1Cent=           4 NGrid=           0.
 Petite list used in FoFCou.
 Initial guess orbital symmetries:
       Occupied  (A) (A) (A) (A) (A) (A) (A) (A) (A) (A) (A) (A)
                 (A) (A) (A) (A) (A) (A) (A) (A) (A) (A) (A) (A)
                 (A) (A) (A) (A) (A) (A) (A) (A) (A) (A) (A) (A)
                 (A)
       Virtual   (A) (A) (A) (A) (A) (A) (A) (A) (A) (A) (A) (A)
                 (A) (A) (A) (A) (A) (A) (A) (A) (A) (A) (A) (A)
                 (A) (A) (A) (A) (A) (A) (A) (A) (A) (A) (A) (A)
                 (A) (A) (A) (A) (A) (A) (A) (A) (A) (A) (A) (A)
                 (A) (A) (A) (A) (A) (A) (A) (A) (A) (A) (A) (A)
                 (A) (A) (A) (A) (A) (A) (A) (A) (A) (A) (A) (A)
                 (A) (A) (A) (A) (A) (A) (A) (A) (A) (A) (A) (A)
                 (A) (A) (A) (A) (A) (A) (A) (A) (A) (A) (A) (A)
                 (A) (A) (A) (A) (A) (A) (A) (A) (A) (A) (A) (A)
                 (A) (A) (A) (A) (A) (A) (A) (A) (A) (A) (A) (A)
                 (A) (A) (A) (A) (A) (A) (A) (A) (A) (A) (A) (A)
                 (A) (A) (A) (A) (A) (A) (A) (A) (A) (A) (A) (A)
                 (A) (A) (A) (A) (A) (A) (A) (A) (A) (A) (A) (A)
                 (A) (A) (A) (A) (A) (A) (A) (A) (A) (A) (A) (A)
                 (A) (A) (A) (A) (A) (A) (A) (A) (A) (A) (A) (A)
                 (A) (A) (A) (A) (A) (A) (A) (A) (A) (A) (A) (A)
                 (A) (A) (A) (A) (A) (A) (A) (A) (A) (A) (A) (A)
                 (A) (A) (A) (A) (A) (A) (A) (A) (A) (A) (A) (A)
                 (A) (A) (A) (A) (A) (A) (A) (A) (A) (A) (A) (A)
                 (A) (A) (A) (A) (A) (A) (A) (A) (A) (A) (A) (A)
                 (A) (A) (A) (A) (A) (A) (A) (A) (A) (A) (A) (A)
                 (A) (A) (A) (A) (A) (A) (A) (A) (A) (A) (A) (A)
                 (A) (A) (A) (A) (A) (A) (A) (A) (A)
 The electronic state of the initial guess is 1-A.
 Requested convergence on RMS density matrix=1.00D-08 within 128 cycles.
 Requested convergence on MAX density matrix=1.00D-06.
 Requested convergence on             energy=1.00D-06.
 No special actions if energy rises.
 Initial convergence to 1.0D-05 achieved.  Increase integral accuracy.
 SCF Done:  E(RHF) =  -424.199352505     A.U. after   13 cycles
             Convg  =    0.5477D-08             -V/T =  2.0017
 ExpMin= 3.60D-02 ExpMax= 8.59D+03 ExpMxC= 1.30D+03 IAcc=3 IRadAn=         5 AccDes= 0.00D+00
 HarFok:  IExCor=  205 AccDes= 0.00D+00 IRadAn=         5 IDoV=-2
 ScaDFX=  1.000000  1.000000  1.000000  1.000000
 Range of M.O.s used for correlation:    10   310
 NBasis=   310 NAE=    37 NBE=    37 NFC=     9 NFV=     0
 NROrb=    301 NOA=    28 NOB=    28 NVA=   273 NVB=   273

 **** Warning!!: The largest alpha MO coefficient is  0.88981524D+02

 Disk-based method using ON**2 memory for 28 occupieds at a time.
 Estimated scratch disk usage=  1468174684 words.
 Actual    scratch disk usage=  1454952284 words.
 GetIJB would need an additional    25190849 words of memory to use all   8 processors.
 JobTyp=1 Pass  1:  I=  10 to  37 NPSUse=  4 ParTrn=F ParDer=T DoDerP=T.
 Spin components of T(2) and E(2):
     alpha-alpha T2 =       0.5559318424D-01 E2=     -0.1753478500D+00
     alpha-beta  T2 =       0.3421069165D+00 E2=     -0.1118451287D+01
     beta-beta   T2 =       0.5559318424D-01 E2=     -0.1753478500D+00
 ANorm=    0.1205526144D+01
 E2 =    -0.1469146987D+01 EUMP2 =    -0.42566849949178D+03
          Differentiating once with respect to electric field.
                with respect to dipole field.
          Electric field/nuclear overlap derivatives assumed to be zero.
          There are     1 degrees of freedom in the 1st order CPHF.  IDoFFX=0.
 LinEq1:  Iter=  0 NonCon=     1 RMS=2.77D-03 Max=2.54D-02
 AX will form     1 AO Fock derivatives at one time.
 LinEq1:  Iter=  1 NonCon=     1 RMS=6.08D-04 Max=4.59D-03
 LinEq1:  Iter=  2 NonCon=     1 RMS=1.96D-04 Max=2.65D-03
 LinEq1:  Iter=  3 NonCon=     1 RMS=7.15D-05 Max=6.27D-04
 LinEq1:  Iter=  4 NonCon=     1 RMS=1.90D-05 Max=1.71D-04
 LinEq1:  Iter=  5 NonCon=     1 RMS=3.94D-06 Max=4.23D-05
 LinEq1:  Iter=  6 NonCon=     1 RMS=1.17D-06 Max=1.24D-05
 LinEq1:  Iter=  7 NonCon=     1 RMS=3.96D-07 Max=3.51D-06
 LinEq1:  Iter=  8 NonCon=     1 RMS=1.24D-07 Max=1.61D-06
 LinEq1:  Iter=  9 NonCon=     1 RMS=4.00D-08 Max=6.54D-07
 LinEq1:  Iter= 10 NonCon=     1 RMS=9.93D-09 Max=1.92D-07
 LinEq1:  Iter= 11 NonCon=     1 RMS=2.82D-09 Max=4.89D-08
 LinEq1:  Iter= 12 NonCon=     1 RMS=8.32D-10 Max=1.02D-08
 LinEq1:  Iter= 13 NonCon=     1 RMS=2.18D-10 Max=2.13D-09
 LinEq1:  Iter= 14 NonCon=     0 RMS=4.62D-11 Max=3.99D-10
 Linear equations converged to 1.000D-10 1.000D-09 after    14 iterations.
 End of Minotr Frequency-dependent properties file   721 does not exist.
 End of Minotr Frequency-dependent properties file   722 does not exist.

 **********************************************************************

            Population analysis using the MP2 density.

 **********************************************************************

 Orbital symmetries:
       Occupied  (A) (A) (A) (A) (A) (A) (A) (A) (A) (A) (A) (A)
                 (A) (A) (A) (A) (A) (A) (A) (A) (A) (A) (A) (A)
                 (A) (A) (A) (A) (A) (A) (A) (A) (A) (A) (A) (A)
                 (A)
       Virtual   (A) (A) (A) (A) (A) (A) (A) (A) (A) (A) (A) (A)
                 (A) (A) (A) (A) (A) (A) (A) (A) (A) (A) (A) (A)
                 (A) (A) (A) (A) (A) (A) (A) (A) (A) (A) (A) (A)
                 (A) (A) (A) (A) (A) (A) (A) (A) (A) (A) (A) (A)
                 (A) (A) (A) (A) (A) (A) (A) (A) (A) (A) (A) (A)
                 (A) (A) (A) (A) (A) (A) (A) (A) (A) (A) (A) (A)
                 (A) (A) (A) (A) (A) (A) (A) (A) (A) (A) (A) (A)
                 (A) (A) (A) (A) (A) (A) (A) (A) (A) (A) (A) (A)
                 (A) (A) (A) (A) (A) (A) (A) (A) (A) (A) (A) (A)
                 (A) (A) (A) (A) (A) (A) (A) (A) (A) (A) (A) (A)
                 (A) (A) (A) (A) (A) (A) (A) (A) (A) (A) (A) (A)
                 (A) (A) (A) (A) (A) (A) (A) (A) (A) (A) (A) (A)
                 (A) (A) (A) (A) (A) (A) (A) (A) (A) (A) (A) (A)
                 (A) (A) (A) (A) (A) (A) (A) (A) (A) (A) (A) (A)
                 (A) (A) (A) (A) (A) (A) (A) (A) (A) (A) (A) (A)
                 (A) (A) (A) (A) (A) (A) (A) (A) (A) (A) (A) (A)
                 (A) (A) (A) (A) (A) (A) (A) (A) (A) (A) (A) (A)
                 (A) (A) (A) (A) (A) (A) (A) (A) (A) (A) (A) (A)
                 (A) (A) (A) (A) (A) (A) (A) (A) (A) (A) (A) (A)
                 (A) (A) (A) (A) (A) (A) (A) (A) (A) (A) (A) (A)
                 (A) (A) (A) (A) (A) (A) (A) (A) (A) (A) (A) (A)
                 (A) (A) (A) (A) (A) (A) (A) (A) (A) (A) (A) (A)
                 (A) (A) (A) (A) (A) (A) (A) (A) (A)
 The electronic state is 1-A.
 Alpha  occ. eigenvalues --  -20.55494 -20.53781 -11.27763 -11.27583 -11.27565
 Alpha  occ. eigenvalues --  -11.26275 -11.22112 -11.20770 -11.20651  -1.35499
 Alpha  occ. eigenvalues --   -1.33071  -1.06748  -0.99927  -0.98204  -0.91261
 Alpha  occ. eigenvalues --   -0.84724  -0.82349  -0.78728  -0.67936  -0.65368
 Alpha  occ. eigenvalues --   -0.64097  -0.63049  -0.61131  -0.59238  -0.57345
 Alpha  occ. eigenvalues --   -0.56547  -0.55722  -0.52666  -0.51934  -0.50818
 Alpha  occ. eigenvalues --   -0.49026  -0.48410  -0.47682  -0.46651  -0.45231
 Alpha  occ. eigenvalues --   -0.42869  -0.40458
 Alpha virt. eigenvalues --    0.04077   0.04965   0.05208   0.05691   0.06553
 Alpha virt. eigenvalues --    0.07324   0.07437   0.07942   0.08371   0.09405
 Alpha virt. eigenvalues --    0.09614   0.10143   0.10789   0.11277   0.12661
 Alpha virt. eigenvalues --    0.12890   0.14295   0.15191   0.15756   0.16290
 Alpha virt. eigenvalues --    0.17959   0.18287   0.18700   0.19115   0.19320
 Alpha virt. eigenvalues --    0.19549   0.20026   0.20263   0.20649   0.21305
 Alpha virt. eigenvalues --    0.21634   0.22003   0.22335   0.22869   0.23420
 Alpha virt. eigenvalues --    0.23763   0.24371   0.25482   0.25690   0.26679
 Alpha virt. eigenvalues --    0.26929   0.27670   0.28873   0.30177   0.30857
 Alpha virt. eigenvalues --    0.31806   0.32723   0.32922   0.33711   0.34259
 Alpha virt. eigenvalues --    0.35841   0.36109   0.37361   0.38261   0.38448
 Alpha virt. eigenvalues --    0.38832   0.39980   0.40573   0.41583   0.42281
 Alpha virt. eigenvalues --    0.42707   0.44006   0.44644   0.45182   0.46195
 Alpha virt. eigenvalues --    0.46443   0.47042   0.48160   0.49034   0.49205
 Alpha virt. eigenvalues --    0.50093   0.52288   0.53939   0.55066   0.55711
 Alpha virt. eigenvalues --    0.57356   0.60548   0.60775   0.62245   0.63149
 Alpha virt. eigenvalues --    0.64362   0.66361   0.68275   0.70132   0.72075
 Alpha virt. eigenvalues --    0.73884   0.74819   0.79322   0.80266   0.81066
 Alpha virt. eigenvalues --    0.82608   0.84579   0.85436   0.86637   0.87508
 Alpha virt. eigenvalues --    0.87977   0.88600   0.89678   0.90148   0.90786
 Alpha virt. eigenvalues --    0.91049   0.92577   0.93117   0.93484   0.94015
 Alpha virt. eigenvalues --    0.94298   0.95370   0.96250   0.97838   0.99165
 Alpha virt. eigenvalues --    1.00563   1.01485   1.03090   1.08818   1.13729
 Alpha virt. eigenvalues --    1.17200   1.19673   1.21444   1.23491   1.26691
 Alpha virt. eigenvalues --    1.27132   1.28571   1.31267   1.33140   1.34358
 Alpha virt. eigenvalues --    1.40038   1.42823   1.47313   1.49619   1.51117
 Alpha virt. eigenvalues --    1.53876   1.55768   1.57272   1.62188   1.62652
 Alpha virt. eigenvalues --    1.67928   1.70053   1.70834   1.72884   1.74159
 Alpha virt. eigenvalues --    1.76800   1.79384   1.80372   1.82283   1.82876
 Alpha virt. eigenvalues --    1.83644   1.84460   1.85158   1.85834   1.86814
 Alpha virt. eigenvalues --    1.87490   1.88791   1.89848   1.91457   1.91933
 Alpha virt. eigenvalues --    1.92770   1.93962   1.94556   1.96395   1.97470
 Alpha virt. eigenvalues --    1.98862   2.00107   2.01006   2.02092   2.03095
 Alpha virt. eigenvalues --    2.04992   2.05391   2.08017   2.10421   2.11030
 Alpha virt. eigenvalues --    2.12800   2.16907   2.19543   2.20735   2.25132
 Alpha virt. eigenvalues --    2.28690   2.32472   2.34907   2.36320   2.39390
 Alpha virt. eigenvalues --    2.40982   2.42588   2.43416   2.44690   2.47396
 Alpha virt. eigenvalues --    2.51008   2.51704   2.51974   2.54537   2.59734
 Alpha virt. eigenvalues --    2.61840   2.65486   2.68646   2.69639   2.72612
 Alpha virt. eigenvalues --    2.77942   2.82516   2.84015   2.84378   2.84798
 Alpha virt. eigenvalues --    2.85849   2.87190   2.87561   2.87903   2.88325
 Alpha virt. eigenvalues --    2.91030   2.91662   2.93714   2.93999   2.96204
 Alpha virt. eigenvalues --    2.97732   2.97819   2.98478   2.99171   3.01225
 Alpha virt. eigenvalues --    3.03556   3.04523   3.06854   3.09221   3.09618
 Alpha virt. eigenvalues --    3.17662   3.19329   3.22570   3.26818   3.29615
 Alpha virt. eigenvalues --    3.30478   3.33077   3.34289   3.36729   3.37431
 Alpha virt. eigenvalues --    3.40730   3.46309   3.51358   3.52813   3.57283
 Alpha virt. eigenvalues --    3.60881   3.63558   3.64447   3.67158   3.71466
 Alpha virt. eigenvalues --    3.88293   4.16968   4.19903   4.20936   4.22342
 Alpha virt. eigenvalues --    4.23000   4.23198   4.23731   4.24315   4.26698
 Alpha virt. eigenvalues --    4.37174   4.45595   4.52939   4.53380   4.56783
 Alpha virt. eigenvalues --    4.67631   4.71093   4.77462   5.66240   5.73912
 Alpha virt. eigenvalues --    5.93458   5.95294   6.19643   6.27120  24.97855
 Alpha virt. eigenvalues --   25.01546  25.03935  25.06682  25.08536  25.15650
 Alpha virt. eigenvalues --   25.16466  51.63907  51.68596
          Condensed to atoms (all electrons):
              1          2          3          4          5          6
     1  C    5.973050  -0.346571  -0.049967  -0.002348  -0.077017   0.021736
     2  C   -0.346571   6.301051  -0.068936  -0.452448  -0.068812  -0.034513
     3  O   -0.049967  -0.068936   8.566522   0.065000  -0.114210   0.004087
     4  C   -0.002348  -0.452448   0.065000  12.853942  -3.269742   1.018202
     5  C   -0.077017  -0.068812  -0.114210  -3.269742   9.047030  -1.278402
     6  C    0.021736  -0.034513   0.004087   1.018202  -1.278402   6.518846
     7  C   -0.004020   0.130304  -0.272895  -3.959170   1.284701  -0.605342
     8  O   -0.008328   0.008159   0.005655  -0.088184   0.032270  -0.010606
     9  C    0.004251   0.012137  -0.000062  -0.214960   0.008954  -0.014647
    10  H    0.368870  -0.037022  -0.009497   0.011069   0.002897  -0.000295
    11  H    0.399303  -0.050181   0.018928  -0.014109   0.000003   0.000018
    12  H    0.378736  -0.039076  -0.004194  -0.001973   0.001402   0.001764
    13  H   -0.061028   0.372955  -0.058247   0.102156   0.010890   0.002738
    14  H   -0.022435   0.340423  -0.046541  -0.025576  -0.004905   0.002544
    15  H    0.009073  -0.006630  -0.043544   0.500564  -0.134745   0.006361
    16  H   -0.006960   0.017117  -0.032481  -0.025562   0.354288  -0.013050
    17  H    0.002016  -0.000538   0.036529  -0.164474   0.403081  -0.018031
    18  H    0.000815  -0.002979  -0.002078  -0.019226   0.013727   0.337170
    19  H   -0.003474   0.004908  -0.004642  -0.030400   0.032897   0.342691
    20  H    0.001822   0.000914   0.019367  -0.036989  -0.045416   0.400264
    21  H   -0.003568   0.008324   0.009875  -0.082161  -0.019504  -0.007389
    22  H    0.003669  -0.004300  -0.003791  -0.055816   0.015594  -0.008190
    23  H   -0.001392   0.003348  -0.000809   0.031386  -0.007335   0.000947
    24  H   -0.001742   0.004883  -0.001151  -0.027962   0.005898  -0.001377
    25  H    0.000682  -0.002504   0.000856   0.002170  -0.002020   0.000868
              7          8          9         10         11         12
     1  C   -0.004020  -0.008328   0.004251   0.368870   0.399303   0.378736
     2  C    0.130304   0.008159   0.012137  -0.037022  -0.050181  -0.039076
     3  O   -0.272895   0.005655  -0.000062  -0.009497   0.018928  -0.004194
     4  C   -3.959170  -0.088184  -0.214960   0.011069  -0.014109  -0.001973
     5  C    1.284701   0.032270   0.008954   0.002897   0.000003   0.001402
     6  C   -0.605342  -0.010606  -0.014647  -0.000295   0.000018   0.001764
     7  C    9.633920  -0.112959  -0.049431  -0.000461   0.001881  -0.001670
     8  O   -0.112959   8.518175   0.077707  -0.000803   0.000232   0.000267
     9  C   -0.049431   0.077707   5.278064   0.000201   0.000388  -0.000535
    10  H   -0.000461  -0.000803   0.000201   0.583386  -0.034356  -0.038286
    11  H    0.001881   0.000232   0.000388  -0.034356   0.571689  -0.032625
    12  H   -0.001670   0.000267  -0.000535  -0.038286  -0.032625   0.571762
    13  H   -0.059532  -0.017053  -0.010430   0.007963  -0.007137  -0.007928
    14  H   -0.005552  -0.000586  -0.001161  -0.010983  -0.003220   0.009300
    15  H   -0.218253   0.006275   0.002891   0.001051   0.000515   0.000918
    16  H    0.022022  -0.001191  -0.000401   0.000738  -0.000099  -0.000141
    17  H    0.046240  -0.002472  -0.000037  -0.000686   0.000187   0.000085
    18  H    0.003141   0.000549   0.000339  -0.000083  -0.000040   0.000163
    19  H    0.001092  -0.000464  -0.000508   0.001035  -0.000006  -0.000163
    20  H   -0.001584  -0.000532  -0.000267  -0.004615   0.000364   0.000370
    21  H    0.332994  -0.062316   0.028720  -0.000136  -0.000255   0.000481
    22  H    0.312477  -0.049078   0.010827  -0.000189   0.000642  -0.001573
    23  H   -0.036181  -0.048154   0.375705   0.000008  -0.000019  -0.000051
    24  H    0.038012  -0.046544   0.387952   0.000030  -0.000048   0.000076
    25  H    0.001582  -0.057155   0.392676  -0.000001   0.000029  -0.000043
             13         14         15         16         17         18
     1  C   -0.061028  -0.022435   0.009073  -0.006960   0.002016   0.000815
     2  C    0.372955   0.340423  -0.006630   0.017117  -0.000538  -0.002979
     3  O   -0.058247  -0.046541  -0.043544  -0.032481   0.036529  -0.002078
     4  C    0.102156  -0.025576   0.500564  -0.025562  -0.164474  -0.019226
     5  C    0.010890  -0.004905  -0.134745   0.354288   0.403081   0.013727
     6  C    0.002738   0.002544   0.006361  -0.013050  -0.018031   0.337170
     7  C   -0.059532  -0.005552  -0.218253   0.022022   0.046240   0.003141
     8  O   -0.017053  -0.000586   0.006275  -0.001191  -0.002472   0.000549
     9  C   -0.010430  -0.001161   0.002891  -0.000401  -0.000037   0.000339
    10  H    0.007963  -0.010983   0.001051   0.000738  -0.000686  -0.000083
    11  H   -0.007137  -0.003220   0.000515  -0.000099   0.000187  -0.000040
    12  H   -0.007928   0.009300   0.000918  -0.000141   0.000085   0.000163
    13  H    0.656625  -0.093298  -0.013604   0.000773   0.000626  -0.000155
    14  H   -0.093298   0.696116   0.024097  -0.001505   0.000843   0.000683
    15  H   -0.013604   0.024097   0.696233   0.008666  -0.038023   0.001986
    16  H    0.000773  -0.001505   0.008666   0.592088  -0.072411  -0.006442
    17  H    0.000626   0.000843  -0.038023  -0.072411   0.671034  -0.002783
    18  H   -0.000155   0.000683   0.001986  -0.006442  -0.002783   0.569307
    19  H    0.001159  -0.002479   0.006576   0.008905  -0.018928  -0.028183
    20  H   -0.000174   0.002667  -0.003175  -0.013790   0.014999  -0.026153
    21  H   -0.005164   0.002198  -0.026126   0.004350   0.000321  -0.001117
    22  H    0.004861  -0.000951   0.020723  -0.008372   0.004343   0.001148
    23  H    0.000797   0.000171   0.002768   0.000749  -0.000981  -0.000030
    24  H   -0.002920  -0.000200  -0.001302   0.000208   0.000057   0.000062
    25  H   -0.000102   0.000069  -0.001984  -0.000704   0.001594  -0.000024
             19         20         21         22         23         24
     1  C   -0.003474   0.001822  -0.003568   0.003669  -0.001392  -0.001742
     2  C    0.004908   0.000914   0.008324  -0.004300   0.003348   0.004883
     3  O   -0.004642   0.019367   0.009875  -0.003791  -0.000809  -0.001151
     4  C   -0.030400  -0.036989  -0.082161  -0.055816   0.031386  -0.027962
     5  C    0.032897  -0.045416  -0.019504   0.015594  -0.007335   0.005898
     6  C    0.342691   0.400264  -0.007389  -0.008190   0.000947  -0.001377
     7  C    0.001092  -0.001584   0.332994   0.312477  -0.036181   0.038012
     8  O   -0.000464  -0.000532  -0.062316  -0.049078  -0.048154  -0.046544
     9  C   -0.000508  -0.000267   0.028720   0.010827   0.375705   0.387952
    10  H    0.001035  -0.004615  -0.000136  -0.000189   0.000008   0.000030
    11  H   -0.000006   0.000364  -0.000255   0.000642  -0.000019  -0.000048
    12  H   -0.000163   0.000370   0.000481  -0.001573  -0.000051   0.000076
    13  H    0.001159  -0.000174  -0.005164   0.004861   0.000797  -0.002920
    14  H   -0.002479   0.002667   0.002198  -0.000951   0.000171  -0.000200
    15  H    0.006576  -0.003175  -0.026126   0.020723   0.002768  -0.001302
    16  H    0.008905  -0.013790   0.004350  -0.008372   0.000749   0.000208
    17  H   -0.018928   0.014999   0.000321   0.004343  -0.000981   0.000057
    18  H   -0.028183  -0.026153  -0.001117   0.001148  -0.000030   0.000062
    19  H    0.606567  -0.054975  -0.001494   0.000154   0.000087  -0.000046
    20  H   -0.054975   0.567513   0.002109  -0.000727  -0.000075  -0.000095
    21  H   -0.001494   0.002109   0.800602  -0.137343  -0.008608   0.001544
    22  H    0.000154  -0.000727  -0.137343   0.684936   0.015384  -0.001782
    23  H    0.000087  -0.000075  -0.008608   0.015384   0.617804  -0.026823
    24  H   -0.000046  -0.000095   0.001544  -0.001782  -0.026823   0.544217
    25  H   -0.000059   0.000097   0.006667  -0.003912  -0.065879  -0.024615
             25
     1  C    0.000682
     2  C   -0.002504
     3  O    0.000856
     4  C    0.002170
     5  C   -0.002020
     6  C    0.000868
     7  C    0.001582
     8  O   -0.057155
     9  C    0.392676
    10  H   -0.000001
    11  H    0.000029
    12  H   -0.000043
    13  H   -0.000102
    14  H    0.000069
    15  H   -0.001984
    16  H   -0.000704
    17  H    0.001594
    18  H   -0.000024
    19  H   -0.000059
    20  H    0.000097
    21  H    0.006667
    22  H   -0.003912
    23  H   -0.065879
    24  H   -0.024615
    25  H    0.621867
 Mulliken atomic charges:
              1
     1  C   -0.575176
     2  C   -0.090010
     3  O   -0.013775
     4  C   -0.113389
     5  C   -0.191524
     6  C   -0.666394
     7  C   -0.481314
     8  O   -0.142862
     9  C   -0.288375
    10  H    0.160165
    11  H    0.147917
    12  H    0.162934
    13  H    0.175230
    14  H    0.140280
    15  H    0.198690
    16  H    0.173205
    17  H    0.137407
    18  H    0.160205
    19  H    0.139750
    20  H    0.178080
    21  H    0.156997
    22  H    0.201266
    23  H    0.147180
    24  H    0.153668
    25  H    0.129845
 Sum of Mulliken atomic charges =   0.00000
 Mulliken charges with hydrogens summed into heavy atoms:
              1
     1  C   -0.104160
     2  C    0.225500
     3  O   -0.013775
     4  C    0.085301
     5  C    0.119089
     6  C   -0.188359
     7  C   -0.123052
     8  O   -0.142862
     9  C    0.142319
 Sum of Mulliken charges with hydrogens summed into heavy atoms =   0.00000
 Electronic spatial extent (au):  <R**2>=           1783.5328
 Charge=              0.0000 electrons
 Dipole moment (field-independent basis, Debye):
    X=             -1.2484    Y=             -0.8581    Z=             -0.1481  Tot=              1.5221
 Quadrupole moment (field-independent basis, Debye-Ang):
   XX=            -55.7512   YY=            -56.1963   ZZ=            -60.4942
   XY=              0.5489   XZ=             -2.6107   YZ=             -1.1080
 Traceless Quadrupole moment (field-independent basis, Debye-Ang):
   XX=              1.7294   YY=              1.2842   ZZ=             -3.0136
   XY=              0.5489   XZ=             -2.6107   YZ=             -1.1080
 Octapole moment (field-independent basis, Debye-Ang**2):
  XXX=            -32.9332  YYY=              4.9666  ZZZ=              0.6376  XYY=             -2.5845
  XXY=             -0.4345  XXZ=              2.3801  XZZ=             -1.6589  YZZ=              0.8483
  YYZ=             -2.1116  XYZ=             -1.2289
 Hexadecapole moment (field-independent basis, Debye-Ang**3):
 XXXX=          -1263.4721 YYYY=           -967.1900 ZZZZ=           -150.4408 XXXY=              2.9532
 XXXZ=             10.8898 YYYX=              2.9276 YYYZ=             -3.4315 ZZZX=             -1.4469
 ZZZY=              1.2435 XXYY=           -383.3908 XXZZ=           -253.7866 YYZZ=           -189.0867
 XXYZ=             -4.2889 YYXZ=              4.5488 ZZXY=             -2.2859
 N-N= 4.938386561865D+02 E-N=-1.981657743148D+03  KE= 4.250813216031D+02

 **********************************************************************

          Electrostatic Properties Using The MP2 Density

 **********************************************************************

       Atomic Center    1 is at   1.145251  2.936389  0.274008
       Atomic Center    2 is at   0.484132  1.765400 -0.430492
       Atomic Center    3 is at   0.786312  0.561895  0.351608
       Atomic Center    4 is at   0.295591 -0.706297 -0.184092
       Atomic Center    5 is at   1.271573 -1.792413  0.285608
       Atomic Center    6 is at   2.693676 -1.604636 -0.256792
       Atomic Center    7 is at  -1.122913 -0.982373  0.295608
       Atomic Center    8 is at  -2.040499 -0.081458 -0.388192
       Atomic Center    9 is at  -3.420101 -0.219036  0.038608
       Atomic Center   10 is at   2.222948  2.785272  0.349008
       Atomic Center   11 is at   0.963166  3.863092 -0.276392
       Atomic Center   12 is at   0.746453  3.051796  1.282708
       Atomic Center   13 is at  -0.596666  1.890118 -0.501692
       Atomic Center   14 is at   0.884930  1.637494 -1.443792
       Atomic Center   15 is at   0.291992 -0.654997 -1.280392
       Atomic Center   16 is at   1.289373 -1.787613  1.379708
       Atomic Center   17 is at   0.883157 -2.768206 -0.024392
       Atomic Center   18 is at   3.358964 -2.387147  0.114808
       Atomic Center   19 is at   2.708476 -1.646736 -1.349692
       Atomic Center   20 is at   3.094592 -0.639643  0.051308
       Atomic Center   21 is at  -1.403830 -2.020469  0.073808
       Atomic Center   22 is at  -1.179211 -0.821473  1.378308
       Atomic Center   23 is at  -3.527197  0.008366  1.104508
       Atomic Center   24 is at  -3.993989  0.495474 -0.545392
       Atomic Center   25 is at  -3.792918 -1.231030 -0.154492
      Read-in Center   26 is at   1.145192  2.936404  2.790299
      Read-in Center   27 is at   2.471469  2.936404  2.099564
      Read-in Center   28 is at   1.806346  4.081597  2.094060
      Read-in Center   29 is at   0.411647  4.206906  2.293242
      Read-in Center   30 is at  -0.363439  2.936404  2.350446
      Read-in Center   31 is at   0.424861  1.688816  2.256888
      Read-in Center   32 is at   1.800578  1.801160  2.078291
      Read-in Center   33 is at   3.587610  2.936404  1.067615
      Read-in Center   34 is at   2.881952  4.198280  0.971569
      Read-in Center   35 is at   1.779094  4.887428  0.940612
      Read-in Center   36 is at   0.479948  4.983738  0.973527
      Read-in Center   37 is at  -0.573575  4.185157  0.964320
      Read-in Center   38 is at   3.530565  2.936404 -0.501009
      Read-in Center   39 is at  -1.479421  1.029567  1.328129
      Read-in Center   40 is at  -0.562621 -2.319701  2.069771
      Read-in Center   41 is at   3.032715  1.565042  1.032160
      Read-in Center   42 is at   3.530565  2.936404 -0.501009
      Read-in Center   43 is at   2.892483  4.205900 -0.427718
      Read-in Center   44 is at   1.864820  5.151276 -0.482641
      Read-in Center   45 is at   0.385188  5.275368 -0.525039
      Read-in Center   46 is at  -0.637764  4.231777 -0.442022
      Read-in Center   47 is at  -1.747661  2.936404 -0.665917
      Read-in Center   48 is at  -0.567384 -2.334254 -1.526623
      Read-in Center   49 is at   2.982866  1.601237 -0.464009
      Read-in Center   50 is at   1.145192  2.936404 -2.387224
      Read-in Center   51 is at   0.484144  1.765388  2.307160
      Read-in Center   52 is at   2.157085  1.765388  1.872176
      Read-in Center   53 is at   1.561284  3.631108  2.534706
      Read-in Center   54 is at  -0.465602  3.410388  2.183967
      Read-in Center   55 is at  -0.788104  1.765388  1.320668
      Read-in Center   56 is at  -0.667345 -0.229054  2.739339
      Read-in Center   57 is at   1.452697  0.087838  2.235721
      Read-in Center   58 is at   3.397900  1.765388  0.516276
      Read-in Center   59 is at   3.350380  3.847859  0.720686
      Read-in Center   60 is at   1.566153  5.095500  0.707245
      Read-in Center   61 is at  -0.419902  4.547802  0.520118
      Read-in Center   62 is at  -1.338818  3.089866  0.301684
      Read-in Center   63 is at  -3.607983  1.765388  0.899178
      Read-in Center   64 is at  -1.113018 -3.150086  1.248858
      Read-in Center   65 is at   2.178040 -3.447960  1.350619
      Read-in Center   66 is at   4.398521 -1.078569  1.141647
      Read-in Center   67 is at   2.632498  1.765388 -1.128470
      Read-in Center   68 is at   2.639166  3.331118 -1.295955
      Read-in Center   69 is at   1.457672  4.761537 -1.454073
      Read-in Center   70 is at  -0.288841  4.144410 -1.243249
      Read-in Center   71 is at  -1.371257  3.113414 -1.175620
      Read-in Center   72 is at   3.397900  1.765388  0.516276
      Read-in Center   73 is at  -3.259202 -0.954318 -1.933878
      Read-in Center   74 is at  -0.749103 -2.030135 -1.727181
      Read-in Center   75 is at   2.020452 -2.962916 -2.045852
      Read-in Center   76 is at   4.103134 -0.863935 -1.883924
      Read-in Center   77 is at   0.965748  1.749142  2.331079
      Read-in Center   78 is at   2.109406  1.749142  1.886993
      Read-in Center   79 is at   1.775284  3.151356  2.541321
      Read-in Center   80 is at   0.110572  3.230362  2.666894
      Read-in Center   81 is at  -0.203585  1.749142  1.922236
      Read-in Center   82 is at   0.218598  0.455077  2.369497
      Read-in Center   83 is at   1.649075  0.565638  2.193863
      Read-in Center   84 is at   3.202422  1.749142  1.039569
      Read-in Center   85 is at   3.325720  3.463782  1.260659
      Read-in Center   86 is at   1.900328  4.625591  1.295532
      Read-in Center   87 is at   2.652607 -3.442457 -1.460847
      Read-in Center   88 is at   4.510971 -0.826575 -1.111008
      Read-in Center   89 is at   3.164427  1.749142 -0.401587
      Read-in Center   90 is at  -0.442382 -2.584554  1.793382
      Read-in Center   91 is at  -0.065173  4.921983 -0.771170
      Read-in Center   92 is at   3.164427  1.749142 -0.401577
      Read-in Center   93 is at  -0.442382 -2.584554  1.793382
      Read-in Center   94 is at  -0.065221  4.922142 -0.771223
      Read-in Center   95 is at  -1.260765  3.366837 -0.581407
      Read-in Center   96 is at   3.202422  1.749142  1.039569
      Read-in Center   97 is at   3.325720  3.463782  1.260659
      Read-in Center   98 is at   1.900328  4.625591  1.295532
      Read-in Center   99 is at   2.652607 -3.442457 -1.460847
      Read-in Center  100 is at   4.510971 -0.826575 -1.111008
      Read-in Center  101 is at   0.965748  1.749142  2.331079
      Read-in Center  102 is at   0.635224  1.163661 -2.947411
      Read-in Center  103 is at  -0.886054  1.163661 -2.133272
      Read-in Center  104 is at  -0.254116  2.704043  2.408709
      Read-in Center  105 is at   2.195080  1.163661 -2.186349
      Read-in Center  106 is at   1.517204  2.691289 -2.467289
      Read-in Center  107 is at  -0.202929  2.615405 -2.346689
      Read-in Center  108 is at  -4.632735  1.163661 -1.751100
      Read-in Center  109 is at   3.503894  3.247878  1.112701
      Read-in Center  110 is at   1.797774  4.741639  1.182976
      Read-in Center  111 is at  -0.406773  4.370580  1.056185
      Read-in Center  112 is at  -1.341147  2.599583  0.754289
      Read-in Center  113 is at   3.088331  2.945982 -1.024646
      Read-in Center  114 is at   1.803965  4.760743 -1.268332
      Read-in Center  115 is at  -0.364397  4.240191 -1.090475
      Read-in Center  116 is at   4.201032 -1.427032  1.392689
      Read-in Center  117 is at   3.088331  2.945930 -1.024646
      Read-in Center  118 is at   1.803965  4.760743 -1.268332
      Read-in Center  119 is at  -0.364397  4.240191 -1.090475
      Read-in Center  120 is at   4.201297 -1.427244  1.392794
      Read-in Center  121 is at   3.503894  3.247878  1.112701
      Read-in Center  122 is at   1.797774  4.741639  1.182923
      Read-in Center  123 is at  -0.406773  4.370580  1.056185
      Read-in Center  124 is at  -1.340988  2.599424  0.754236
      Read-in Center  125 is at   0.635224  1.163661 -2.947411
      Read-in Center  126 is at   0.786304  0.561933  2.416964
      Read-in Center  127 is at   1.981028  0.561933  1.995951
      Read-in Center  128 is at   1.455079  1.720302  2.192646
      Read-in Center  129 is at   0.135125  1.689769  2.144120
      Read-in Center  130 is at  -0.541243  0.561933  2.178834
      Read-in Center  131 is at  -0.010804 -0.818743  2.545819
      Read-in Center  132 is at   1.611080 -0.866633  2.621967
      Read-in Center  133 is at   3.079018  0.561933  1.096508
      Read-in Center  134 is at   3.346252  2.421832  1.379724
      Read-in Center  135 is at   2.012302  4.335126  1.640661
      Read-in Center  136 is at  -0.389321  4.180130  1.587690
      Read-in Center  137 is at  -1.085977  1.922236  1.103546
      Read-in Center  138 is at  -4.606382  0.561933  2.103797
      Read-in Center  139 is at  -0.339160 -2.901902  1.534984
      Read-in Center  140 is at   2.049450 -3.325720  1.679767
      Read-in Center  141 is at   3.921626 -1.716069  1.610815
      Read-in Center  142 is at   3.843044  0.561933 -0.641627
      Read-in Center  143 is at   3.358264  2.430564 -0.681369
      Read-in Center  144 is at   2.123271  4.676657 -1.054174
      Read-in Center  145 is at  -0.431486  4.309884 -0.928865
      Read-in Center  146 is at  -1.969756  2.564340 -0.755295
      Read-in Center  147 is at  -3.028957 -2.210003 -1.180700
      Read-in Center  148 is at  -0.447308 -3.234754 -0.945534
      Read-in Center  149 is at   2.131367 -3.577820 -1.062694
      Read-in Center  150 is at  -1.085977  1.922236  1.103546
      Read-in Center  151 is at   0.786304  0.561933 -2.710128
      Read-in Center  152 is at   0.389850  0.529548 -2.677372
      Read-in Center  153 is at  -0.933310  0.529548 -2.128457
      Read-in Center  154 is at  -0.459030 -0.940771 -2.644034
      Read-in Center  155 is at   1.219648 -0.907698 -2.591487
      Read-in Center  156 is at   1.776342  0.529548 -2.215612
      Read-in Center  157 is at   1.321673  2.143538 -2.872427
      Read-in Center  158 is at  -0.413224  1.920490 -2.517984
      Read-in Center  159 is at   3.625552  2.880417  0.992260
      Read-in Center  160 is at  -0.618714 -2.574553 -1.367764
      Read-in Center  161 is at   1.595787 -3.181890 -1.575255
      Read-in Center  162 is at  -1.770151  2.098876  0.560240
      Read-in Center  163 is at  -5.036920  0.529548  1.455978
      Read-in Center  164 is at  -3.376839 -2.207145  1.205519
      Read-in Center  165 is at   1.641455  4.381587 -1.623304
      Read-in Center  166 is at  -0.572781  3.492146 -1.319450
      Read-in Center  167 is at  -1.934460  2.218258 -1.240762
      Read-in Center  168 is at  -5.036867  0.529548  1.455978
      Read-in Center  169 is at  -3.376891 -2.207145  1.205519
      Read-in Center  170 is at   1.641455  4.381534 -1.623304
      Read-in Center  171 is at  -0.572781  3.492146 -1.319450
      Read-in Center  172 is at  -1.934460  2.218258 -1.240762
      Read-in Center  173 is at   3.625552  2.880417  0.992260
      Read-in Center  174 is at  -0.618714 -2.574553 -1.367764
      Read-in Center  175 is at   1.595787 -3.181890 -1.575255
      Read-in Center  176 is at  -1.770098  2.098876  0.560187
      Read-in Center  177 is at   0.389850  0.529548 -2.677372
      Read-in Center  178 is at   0.540925 -0.072196 -2.752145
      Read-in Center  179 is at  -1.203084 -0.072196 -2.316738
      Read-in Center  180 is at  -0.354035 -1.622299 -2.379869
      Read-in Center  181 is at   1.460847 -1.665532 -2.448556
      Read-in Center  182 is at  -0.357967 -1.629125  2.558201
      Read-in Center  183 is at   1.564460 -1.845029  2.901320
      Read-in Center  184 is at  -4.959872 -0.072196 -1.703580
      Read-in Center  185 is at  -2.498457 -2.280436 -1.136937
      Read-in Center  186 is at  -0.468814 -3.179879 -0.977972
      Read-in Center  187 is at   1.702945 -3.648518 -1.138101
      Read-in Center  188 is at   4.243737 -2.762464 -1.403378
      Read-in Center  189 is at  -4.932037 -0.072196  1.862016
      Read-in Center  190 is at  -2.610484 -2.361824  1.349402
      Read-in Center  191 is at  -0.476222 -3.202686  1.153236
      Read-in Center  192 is at   1.713582 -3.681168  1.316699
      Read-in Center  193 is at   4.075935 -2.640541  1.503498
      Read-in Center  194 is at  -4.932037 -0.072196  1.862016
      Read-in Center  195 is at  -2.610484 -2.361824  1.349402
      Read-in Center  196 is at  -0.476217 -3.202686  1.153236
      Read-in Center  197 is at   1.713582 -3.681168  1.316699
      Read-in Center  198 is at   4.076040 -2.640594  1.503498
      Read-in Center  199 is at  -4.959819 -0.072196 -1.703580
      Read-in Center  200 is at  -2.498457 -2.280436 -1.136937
      Read-in Center  201 is at  -0.468814 -3.179879 -0.977972
      Read-in Center  202 is at   1.702945 -3.648518 -1.138101
      Read-in Center  203 is at   4.243737 -2.762464 -1.403378
      Read-in Center  204 is at   0.540925 -0.072196 -2.752145
      Read-in Center  205 is at   0.295556 -0.706293  2.405693
      Read-in Center  206 is at   2.084588 -0.706293  2.278267
      Read-in Center  207 is at   1.208800  0.875471  2.329809
      Read-in Center  208 is at  -0.528542  0.721057  2.084429
      Read-in Center  209 is at  -1.865085 -0.706293  2.789769
      Read-in Center  210 is at  -0.568654 -2.203176  2.194921
      Read-in Center  211 is at   1.359509 -2.549100  2.744683
      Read-in Center  212 is at   4.344386 -0.706293  1.131434
      Read-in Center  213 is at   2.850519  1.150008  0.842027
      Read-in Center  214 is at   1.961131  4.419847  1.567211
      Read-in Center  215 is at  -0.940401  3.097645  1.115453
      Read-in Center  216 is at  -2.832421  1.566312  1.072166
      Read-in Center  217 is at  -4.976330 -0.706293  1.528846
      Read-in Center  218 is at  -2.577199 -2.793474  0.969664
      Read-in Center  219 is at  -0.593472 -3.442404  0.750638
      Read-in Center  220 is at   1.372209 -4.019895  0.947968
      Read-in Center  221 is at   3.875694 -3.307463  1.253780
      Read-in Center  222 is at   4.274058 -0.706293 -1.476775
      Read-in Center  223 is at   2.482582  0.882668 -1.062482
      Read-in Center  224 is at   1.772003  3.837699 -1.736548
      Read-in Center  225 is at  -0.957969  3.151568 -1.502122
      Read-in Center  226 is at  -2.715737  1.481537 -1.393535
      Read-in Center  227 is at  -4.574208 -0.706293 -1.766394
      Read-in Center  228 is at  -2.222386 -2.535711 -1.195358
      Read-in Center  229 is at  -0.490457 -3.125426 -1.010570
      Read-in Center  230 is at   1.280291 -3.736944 -1.219489
      Read-in Center  231 is at   3.690588 -3.172947 -1.547632
      Read-in Center  232 is at   0.295556 -0.706293  2.405745
      Read-in Center  233 is at   1.208376  0.572041 -2.631334
      Read-in Center  234 is at   2.276732  0.572041  1.750307
      Read-in Center  235 is at   1.827513  1.644365  1.984097
      Read-in Center  236 is at   2.344308 -1.395493 -2.847185
      Read-in Center  237 is at   2.356109  0.572041 -1.299871
      Read-in Center  238 is at   2.132955  2.173437 -2.265302
      Read-in Center  239 is at   1.976159 -0.757835  2.393416
      Read-in Center  240 is at   3.368425  0.572041  0.981677
      Read-in Center  241 is at   3.402504  2.166134  1.161015
      Read-in Center  242 is at   2.381985  4.183993  1.513817
      Read-in Center  243 is at   2.556296 -3.576497 -1.137466
      Read-in Center  244 is at  -0.982100  2.163488  1.159586
      Read-in Center  245 is at   3.867386  0.572041 -0.584159
      Read-in Center  246 is at   3.302225  2.093266 -0.561087
      Read-in Center  247 is at   2.431252  4.335708 -1.006019
      Read-in Center  248 is at   2.430405 -3.189034  1.564777
      Read-in Center  249 is at   4.143458 -1.560438  1.458624
      Read-in Center  250 is at   3.867386  0.572041 -0.584159
      Read-in Center  251 is at   3.302225  2.093266 -0.561087
      Read-in Center  252 is at   2.431252  4.335708 -1.006019
      Read-in Center  253 is at   2.430405 -3.189034  1.564777
      Read-in Center  254 is at   4.143775 -1.560649  1.458730
      Read-in Center  255 is at   3.368425  0.572041  0.981677
      Read-in Center  256 is at   3.402451  2.166134  1.161015
      Read-in Center  257 is at   2.381985  4.183993  1.513817
      Read-in Center  258 is at   2.556349 -3.576603 -1.137519
      Read-in Center  259 is at  -0.982259  2.163594  1.159639
      Read-in Center  260 is at   1.208376  0.572041 -2.631545
      Read-in Center  261 is at   1.028932 -0.615221  2.481788
      Read-in Center  262 is at   2.277632 -0.615221  2.037226
      Read-in Center  263 is at   1.700723  0.548333  2.167880
      Read-in Center  264 is at   0.281993  0.678564  2.374789
      Read-in Center  265 is at   0.213068 -2.028336  2.564499
      Read-in Center  266 is at   1.914510 -2.149042  2.756272
      Read-in Center  267 is at   2.870945  0.723068  1.058407
      Read-in Center  268 is at   2.458610  3.784887  1.821851
      Read-in Center  269 is at  -0.444541  3.919721  1.867890
      Read-in Center  270 is at   4.369892 -3.042557 -1.023217
      Read-in Center  271 is at   4.580717 -0.615221 -0.835465
      Read-in Center  272 is at   3.083569  0.877535 -0.506587
      Read-in Center  273 is at   2.494965  3.896702 -1.222876
      Read-in Center  274 is at   1.984309 -3.555542  1.323102
      Read-in Center  275 is at   3.991637 -2.767756  1.508473
      Read-in Center  276 is at   4.580717 -0.615221 -0.835465
      Read-in Center  277 is at   3.083569  0.877535 -0.506587
      Read-in Center  278 is at   2.495018  3.896914 -1.222929
      Read-in Center  279 is at   1.984309 -3.555542  1.323102
      Read-in Center  280 is at   3.991637 -2.767756  1.508473
      Read-in Center  281 is at   2.870945  0.723068  1.058407
      Read-in Center  282 is at   2.458610  3.784887  1.821851
      Read-in Center  283 is at  -0.444509  3.919616  1.867890
      Read-in Center  284 is at   4.369892 -3.042557 -1.023217
      Read-in Center  285 is at   1.028932 -0.615221  2.481788
      Read-in Center  286 is at   1.271613 -1.792376  2.928573
      Read-in Center  287 is at   2.673403 -1.792376  2.214977
      Read-in Center  288 is at   1.976689 -0.571088  2.226513
      Read-in Center  289 is at   0.527187 -0.503009  2.334730
      Read-in Center  290 is at  -0.307224 -1.792376  2.458663
      Read-in Center  291 is at   0.567278 -3.012288  2.224449
      Read-in Center  292 is at   1.970127 -3.002234  2.208415
      Read-in Center  293 is at   4.392594 -1.792376  1.299659
      Read-in Center  294 is at   3.774198  0.025909  1.290716
      Read-in Center  295 is at   0.494119 -4.185157 -0.531876
      Read-in Center  296 is at  -2.738333  1.121009  1.896095
      Read-in Center  297 is at  -2.912962 -1.792376  1.645212
      Read-in Center  298 is at  -0.699466 -3.224435  1.077193
      Read-in Center  299 is at   0.561986 -3.976238  1.031684
      Read-in Center  300 is at   1.918267 -3.782612  0.965537
      Read-in Center  301 is at   3.580519 -3.469868  1.212927
      Read-in Center  302 is at   4.758679 -1.792376 -0.847424
      Read-in Center  303 is at   4.089270  0.254809 -0.846049
      Read-in Center  304 is at   2.751034  2.760876 -1.269972
      Read-in Center  305 is at  -0.422929  3.422824 -1.496143
      Read-in Center  306 is at  -3.190780  1.449734 -1.506568
      Read-in Center  307 is at   4.392541 -1.792376  1.299659
      Read-in Center  308 is at  -0.954212 -3.409489 -0.608342
      Read-in Center  309 is at   0.494119 -4.185157 -0.531876
      Read-in Center  310 is at   1.966793 -3.931998 -0.445409
      Read-in Center  311 is at   3.847012 -3.663494 -0.748733
      Read-in Center  312 is at   1.271613 -1.792376 -2.314251
      Read-in Center  313 is at   2.693724 -1.604624  2.180316
      Read-in Center  314 is at   4.007194 -1.604624  1.550965
      Read-in Center  315 is at   3.379432 -0.416928  1.630765
      Read-in Center  316 is at   1.864979 -0.169130  2.024579
      Read-in Center  317 is at   0.510217 -1.604624  2.748546
      Read-in Center  318 is at   1.816612 -3.123786  2.157667
      Read-in Center  319 is at   3.392291 -2.814535  1.666114
      Read-in Center  320 is at   4.854301 -1.604624  0.445192
      Read-in Center  321 is at   4.568493 -0.242506  0.496130
      Read-in Center  322 is at   3.467169  0.775827  0.556430
      Read-in Center  323 is at   3.368795 -3.682280 -0.966648
      Read-in Center  324 is at  -1.121591  1.167418  1.275529
      Read-in Center  325 is at  -3.648624 -1.604624  1.803912
      Read-in Center  326 is at  -0.153752 -3.673442  0.886795
      Read-in Center  327 is at   1.931338 -3.950996  0.544788
      Read-in Center  328 is at   3.437006 -3.892098  0.524679
      Read-in Center  329 is at   4.689886 -3.054887  0.544894
      Read-in Center  330 is at   4.717244 -1.604624 -0.914312
      Read-in Center  331 is at   4.428472 -0.344256 -0.953524
      Read-in Center  332 is at   3.397794  0.562251 -0.997129
      Read-in Center  333 is at   1.050681  3.452193 -1.984415
      Read-in Center  334 is at  -1.417613  1.382475 -1.908054
      Read-in Center  335 is at  -2.008968 -1.604624 -1.784809
      Read-in Center  336 is at   0.166754 -3.440551 -1.271719
      Read-in Center  337 is at   2.026272 -3.658837 -0.958605
      Read-in Center  338 is at   3.368795 -3.682280 -0.966648
      Read-in Center  339 is at   4.488481 -2.908570 -0.977655
      Read-in Center  340 is at   2.693724 -1.604624 -2.899891
      Read-in Center  341 is at  -1.122861 -0.982417  2.930266
      Read-in Center  342 is at   0.534522 -0.982417  2.576828
      Read-in Center  343 is at  -0.381579  0.301525  2.336264
      Read-in Center  344 is at  -1.856354  0.287973  2.314727
      Read-in Center  345 is at  -2.621279 -0.982417  2.358067
      Read-in Center  346 is at  -1.807193 -2.167669  2.179363
      Read-in Center  347 is at  -0.432110 -2.178887  2.197144
      Read-in Center  348 is at   3.333922 -0.982417  1.743745
      Read-in Center  349 is at   2.275356  1.486512  1.660452
      Read-in Center  350 is at  -1.902286 -3.381231 -0.523880
      Read-in Center  351 is at  -1.877627  1.340406  1.089205
      Read-in Center  352 is at  -4.318562  1.339348  1.579118
      Read-in Center  353 is at  -4.861604 -0.982417  1.510431
      Read-in Center  354 is at  -3.009325 -2.353039  1.053274
      Read-in Center  355 is at  -1.849951 -3.220202  1.060154
      Read-in Center  356 is at  -0.361936 -3.324397  1.095767
      Read-in Center  357 is at   2.117714 -3.336833  1.597110
      Read-in Center  358 is at   4.371798 -0.982417 -1.489687
      Read-in Center  359 is at   2.598260  1.721096 -1.198851
      Read-in Center  360 is at   0.692852  4.605800 -1.613514
      Read-in Center  361 is at  -2.141051  2.151105 -0.774874
      Read-in Center  362 is at  -4.751800  1.654155 -1.161809
      Read-in Center  363 is at  -5.231075 -0.982417 -1.039198
      Read-in Center  364 is at  -3.479023 -2.694253 -0.650623
      Read-in Center  365 is at  -1.902286 -3.381231 -0.523880
      Read-in Center  366 is at  -0.236352 -3.710908 -0.636494
      Read-in Center  367 is at   2.427283 -3.561786 -1.130164
      Read-in Center  368 is at  -1.122861 -0.982417 -2.208944
      Read-in Center  369 is at  -2.040507 -0.081477  2.517084
      Read-in Center  370 is at  -0.023933 -0.081477  2.387436
      Read-in Center  371 is at  -1.409358  1.011734  1.349296
      Read-in Center  372 is at  -2.820356  1.269232  1.758562
      Read-in Center  373 is at  -4.157798 -0.081477  2.526027
      Read-in Center  374 is at  -2.877401 -1.530963  1.915516
      Read-in Center  375 is at  -0.975750 -1.925729  2.542908
      Read-in Center  376 is at  -5.219963 -0.081477 -1.421211
      Read-in Center  377 is at  -4.532826 -1.892232 -1.389143
      Read-in Center  378 is at  -0.768207  3.834312  0.949609
      Read-in Center  379 is at  -2.652554  1.802166  0.255365
      Read-in Center  380 is at  -4.468478  1.682572  0.586963
      Read-in Center  381 is at  -5.338340 -0.081477  0.683274
      Read-in Center  382 is at  -4.810433 -2.093901  0.724285
      Read-in Center  383 is at  -2.907617 -2.750134  0.523557
      Read-in Center  384 is at  -0.951037 -3.434572  0.757358
      Read-in Center  385 is at   2.415376 -3.318841  1.401420
      Read-in Center  386 is at   2.905606 -0.081477 -1.995263
      Read-in Center  387 is at  -0.992736  3.143313 -1.489898
      Read-in Center  388 is at  -2.627629  1.725488 -1.005490
      Read-in Center  389 is at  -4.465515  1.680402 -1.362102
      Read-in Center  390 is at  -5.219963 -0.081477 -1.421211
      Read-in Center  391 is at  -4.532826 -1.892232 -1.389143
      Read-in Center  392 is at  -2.726427 -2.192434 -1.109367
      Read-in Center  393 is at  -1.159374 -2.793368 -1.314635
      Read-in Center  394 is at   1.922183 -2.960535 -1.979652
      Read-in Center  395 is at  -2.040507 -0.081477 -2.441042
      Read-in Center  396 is at  -3.420072 -0.219058  2.648162
      Read-in Center  397 is at  -1.417137 -0.219058  2.795326
      Read-in Center  398 is at  -2.709017  1.012581  1.995951
      Read-in Center  399 is at  -4.160920  1.064175  2.077973
      Read-in Center  400 is at  -4.834087 -0.219058  1.984732
      Read-in Center  401 is at  -4.092286 -1.383428  1.889057
      Read-in Center  402 is at  -2.689702 -1.484077  2.049080
      Read-in Center  403 is at   2.141527 -0.219058  1.845611
      Read-in Center  404 is at  -4.192671 -2.596937 -0.773816
      Read-in Center  405 is at  -4.066515  1.770468  0.718252
      Read-in Center  406 is at  -5.098993  1.000780  0.712855
      Read-in Center  407 is at  -5.338869 -0.219058  0.662001
      Read-in Center  408 is at  -5.154451 -1.479156  0.735133
      Read-in Center  409 is at  -4.148379 -2.460515  0.804296
      Read-in Center  410 is at  -2.571695 -2.830093  0.930611
      Read-in Center  411 is at   3.156119 -0.219058 -2.098188
      Read-in Center  412 is at   1.483707  3.343712 -1.930915
      Read-in Center  413 is at  -2.759553  1.813861 -0.655968
      Read-in Center  414 is at  -4.146950  2.017964 -0.725714
      Read-in Center  415 is at  -5.352627  1.184828 -0.737514
      Read-in Center  416 is at  -5.506618 -0.219058 -0.639405
      Read-in Center  417 is at  -5.263620 -1.558480 -0.701848
      Read-in Center  418 is at  -4.192671 -2.596884 -0.773816
      Read-in Center  419 is at  -2.624084 -2.668905 -0.798423
      Read-in Center  420 is at   0.602997 -3.141990 -1.577213
      Read-in Center  421 is at  -3.420072 -0.219058 -2.076915
 -----------------------------------------------------------------

              Electrostatic Properties (Atomic Units)

 -----------------------------------------------------------------
    Center     Electric         -------- Electric Field --------
               Potential          X             Y             Z
 -----------------------------------------------------------------
    1 Atom    -14.771401
    2 Atom    -14.715606
    3 Atom    -22.344554
    4 Atom    -14.699794
    5 Atom    -14.754516
    6 Atom    -14.769773
    7 Atom    -14.705600
    8 Atom    -22.331444
    9 Atom    -14.706166
   10 Atom     -1.121924
   11 Atom     -1.113476
   12 Atom     -1.121846
   13 Atom     -1.129894
   14 Atom     -1.122816
   15 Atom     -1.109128
   16 Atom     -1.116850
   17 Atom     -1.112332
   18 Atom     -1.119836
   19 Atom     -1.120388
   20 Atom     -1.126086
   21 Atom     -1.104135
   22 Atom     -1.106927
   23 Atom     -1.104374
   24 Atom     -1.101272
   25 Atom     -1.104052
   26          -0.004962
   27          -0.011700
   28          -0.006215
   29           0.000006
   30          -0.001126
   31          -0.028240
   32          -0.029039
   33          -0.000329
   34          -0.004913
   35          -0.004914
   36          -0.003921
   37          -0.004538
   38           0.000925
   39          -0.019174
   40           0.007661
   41          -0.016569
   42           0.000925
   43          -0.004232
   44           0.002269
   45           0.006801
   46           0.000783
   47          -0.002139
   48           0.009975
   49          -0.007931
   50           0.003577
   51          -0.025475
   52          -0.028270
   53          -0.004668
   54           0.000414
   55          -0.019912
   56          -0.001074
   57          -0.039982
   58          -0.006054
   59          -0.001630
   60          -0.003129
   61          -0.003265
   62          -0.003281
   63           0.001755
   64           0.010357
   65           0.001300
   66          -0.007925
   67          -0.004461
   68          -0.003094
   69           0.005757
   70           0.004377
   71          -0.001162
   72          -0.006054
   73          -0.010831
   74           0.006259
   75           0.003640
   76          -0.004522
   77          -0.027958
   78          -0.029089
   79          -0.008152
   80           0.001032
   81          -0.024641
   82          -0.036632
   83          -0.046104
   84          -0.011219
   85          -0.002449
   86          -0.006123
   87          -0.000786
   88          -0.007093
   89          -0.005174
   90           0.007434
   91           0.006245
   92          -0.005174
   93           0.007434
   94           0.006243
   95          -0.000569
   96          -0.011219
   97          -0.002449
   98          -0.006123
   99          -0.000786
  100          -0.007093
  101          -0.027958
  102           0.002944
  103          -0.019213
  104          -0.002989
  105           0.002258
  106           0.003898
  107          -0.001107
  108           0.012975
  109          -0.000805
  110          -0.005740
  111          -0.004551
  112          -0.006976
  113          -0.001645
  114           0.003650
  115           0.004118
  116          -0.007451
  117          -0.001645
  118           0.003650
  119           0.004118
  120          -0.007449
  121          -0.000805
  122          -0.005740
  123          -0.004551
  124          -0.006975
  125           0.002944
  126          -0.042910
  127          -0.045753
  128          -0.031108
  129          -0.027453
  130          -0.022854
  131          -0.002073
  132          -0.008204
  133          -0.021152
  134          -0.005253
  135          -0.006806
  136          -0.002509
  137          -0.015382
  138           0.013224
  139           0.006780
  140           0.000932
  141          -0.005929
  142          -0.004682
  143          -0.000340
  144           0.000843
  145           0.003658
  146          -0.005615
  147           0.008329
  148           0.014196
  149           0.002348
  150          -0.015382
  151           0.004205
  152           0.001941
  153          -0.025508
  154           0.000303
  155           0.007621
  156           0.003083
  157           0.005065
  158          -0.005832
  159           0.000088
  160           0.011351
  161           0.004536
  162          -0.013241
  163           0.012114
  164           0.011296
  165           0.003427
  166           0.002079
  167          -0.011342
  168           0.012115
  169           0.011296
  170           0.003427
  171           0.002079
  172          -0.011342
  173           0.000088
  174           0.011351
  175           0.004536
  176          -0.013241
  177           0.001941
  178           0.005445
  179          -0.028755
  180           0.004626
  181           0.007536
  182           0.006666
  183           0.003871
  184           0.008778
  185           0.007155
  186           0.014080
  187           0.005496
  188          -0.003860
  189           0.013340
  190           0.010350
  191           0.008820
  192           0.001042
  193           0.001756
  194           0.013340
  195           0.010350
  196           0.008820
  197           0.001042
  198           0.001755
  199           0.008778
  200           0.007155
  201           0.014080
  202           0.005496
  203          -0.003860
  204           0.005445
  205          -0.008139
  206          -0.013882
  207          -0.045828
  208          -0.027266
  209           0.010615
  210           0.007640
  211           0.005204
  212          -0.007195
  213          -0.027446
  214          -0.006619
  215          -0.004897
  216          -0.004215
  217           0.012917
  218           0.011976
  219           0.011584
  220           0.003586
  221           0.005843
  222          -0.006747
  223          -0.012698
  224           0.000910
  225          -0.000508
  226          -0.020645
  227           0.004356
  228           0.008710
  229           0.013948
  230           0.008224
  231          -0.003113
  232          -0.008139
  233           0.005220
  234          -0.044009
  235          -0.033686
  236           0.007324
  237          -0.010478
  238           0.003177
  239          -0.012029
  240          -0.013188
  241          -0.005384
  242          -0.007006
  243          -0.000199
  244          -0.012182
  245          -0.004416
  246          -0.001702
  247          -0.002396
  248           0.001337
  249          -0.006798
  250          -0.004416
  251          -0.001702
  252          -0.002396
  253           0.001337
  254          -0.006796
  255          -0.013188
  256          -0.005383
  257          -0.007006
  258          -0.000200
  259          -0.012181
  260           0.005218
  261          -0.014616
  262          -0.017210
  263          -0.046033
  264          -0.039568
  265           0.005688
  266           0.003915
  267          -0.029500
  268          -0.008024
  269          -0.000743
  270          -0.001703
  271          -0.006875
  272          -0.012013
  273          -0.003225
  274           0.001111
  275           0.002559
  276          -0.006875
  277          -0.012013
  278          -0.003224
  279           0.001111
  280           0.002559
  281          -0.029500
  282          -0.008024
  283          -0.000742
  284          -0.001703
  285          -0.014616
  286           0.004126
  287          -0.001666
  288          -0.017804
  289          -0.016800
  290           0.006870
  291           0.003150
  292           0.002306
  293          -0.004857
  294          -0.007890
  295           0.012859
  296           0.004436
  297           0.010776
  298           0.010330
  299           0.005521
  300           0.002182
  301           0.005835
  302          -0.005722
  303          -0.005166
  304          -0.002169
  305           0.002621
  306          -0.006038
  307          -0.004857
  308           0.015593
  309           0.012859
  310           0.005023
  311           0.001165
  312           0.007664
  313          -0.003122
  314          -0.006632
  315          -0.011659
  316          -0.033426
  317           0.003747
  318           0.002059
  319           0.001631
  320          -0.005761
  321          -0.004303
  322          -0.009794
  323          -0.000732
  324          -0.024571
  325           0.009889
  326           0.008657
  327           0.003721
  328           0.006166
  329           0.005157
  330          -0.006221
  331          -0.006603
  332          -0.007800
  333           0.003334
  334          -0.026457
  335          -0.015161
  336           0.011932
  337           0.003451
  338          -0.000732
  339          -0.001883
  340           0.007387
  341           0.008448
  342          -0.003706
  343          -0.019748
  344           0.004967
  345           0.011953
  346           0.008100
  347           0.007425
  348          -0.009809
  349          -0.034125
  350           0.015450
  351          -0.019895
  352           0.008634
  353           0.012245
  354           0.012066
  355           0.011801
  356           0.008342
  357           0.000982
  358          -0.006266
  359          -0.004280
  360           0.007502
  361          -0.013781
  362           0.014827
  363           0.009512
  364           0.014936
  365           0.015450
  366           0.014559
  367           0.000407
  368          -0.014548
  369           0.009232
  370          -0.019004
  371          -0.019485
  372           0.003210
  373           0.014613
  374           0.010884
  375           0.008315
  376           0.010415
  377           0.010310
  378          -0.004355
  379          -0.014323
  380           0.006890
  381           0.015556
  382           0.013543
  383           0.014029
  384           0.012745
  385           0.001598
  386          -0.004597
  387          -0.000630
  388          -0.019736
  389           0.013222
  390           0.010415
  391           0.010310
  392           0.007390
  393           0.011025
  394           0.003714
  395          -0.036289
  396           0.014105
  397           0.006502
  398           0.005555
  399           0.011510
  400           0.013444
  401           0.010421
  402           0.010851
  403          -0.031076
  404           0.015291
  405           0.004294
  406           0.010917
  407           0.015858
  408           0.013208
  409           0.013548
  410           0.012172
  411          -0.003803
  412           0.002001
  413          -0.014966
  414           0.009581
  415           0.015666
  416           0.012514
  417           0.012178
  418           0.015292
  419           0.012847
  420           0.009024
  421          -0.010574
 -----------------------------------------------------------------
 1\1\GINC-ATENEA\SP\RMP2-FC\6-311++G(d,p)\C7H16O2\BCZ\05-Dec-2019\0\\#M
 P2/6-311++G(d,p) density=current prop=(potential, read)\\gdb_118582\\0
 ,1\C,0,1.1452,2.9364,0.274\C,0,0.4841,1.7654,-0.4305\O,0,0.7863,0.5619
 ,0.3516\C,0,0.2956,-0.7063,-0.1841\C,0,1.2716,-1.7924,0.2856\C,0,2.693
 7,-1.6046,-0.2568\C,0,-1.1229,-0.9824,0.2956\O,0,-2.0405,-0.0815,-0.38
 82\C,0,-3.4201,-0.2191,0.0386\H,0,2.2229,2.7853,0.349\H,0,0.9631,3.863
 1,-0.2764\H,0,0.7464,3.0518,1.2827\H,0,-0.5967,1.8901,-0.5017\H,0,0.88
 49,1.6375,-1.4438\H,0,0.292,-0.655,-1.2804\H,0,1.2894,-1.7876,1.3797\H
 ,0,0.8832,-2.7682,-0.0244\H,0,3.359,-2.3871,0.1148\H,0,2.7085,-1.6467,
 -1.3497\H,0,3.0946,-0.6396,0.0513\H,0,-1.4038,-2.0205,0.0738\H,0,-1.17
 92,-0.8215,1.3783\H,0,-3.5272,0.0083,1.1045\H,0,-3.994,0.4954,-0.5454\
 H,0,-3.7929,-1.2311,-0.1545\\Version=AM64L-G09RevA.02\State=1-A\HF=-42
 4.1993525\MP2=-425.6684995\RMSD=5.477e-09\Dipole=-0.4911658,-0.3376024
 ,-0.0582832\Quadrupole=1.2857495,0.9548123,-2.2405617,0.4080949,-1.940
 9916,-0.8238107\PG=C01 [X(C7H16O2)]\\@


 Any fool can criticize, condemn, and complain -- and most do.
 -- Dale Carnegie
 Job cpu time:  0 days  0 hours 50 minutes  8.3 seconds.
 File lengths (MBytes):  RWF=  11157 Int=      0 D2E=      0 Chk=      7 Scr=      1
 Normal termination of Gaussian 09 at Thu Dec  5 21:40:20 2019.
