 gdb_1                                                   
GAUSSIAN             50 MOL ORBITALS     72 PRIMITIVES        5 NUCLEI
  C    1    (CENTRE  1)  -0.00000764  0.00000333 -0.00000416  CHARGE =  6.0
  H    2    (CENTRE  2)   0.44406908  1.83304359  0.82512530  CHARGE =  1.0
  H    3    (CENTRE  3)   0.03557177 -1.44094900  1.46985116  CHARGE =  1.0
  H    4    (CENTRE  4)  -1.87341871  0.06617272 -0.85088880  CHARGE =  1.0
  H    5    (CENTRE  5)   1.39382370 -0.45828727 -1.44406272  CHARGE =  1.0
CENTRE ASSIGNMENTS    1  1  1  1  1  1  1  1  1  1  1  1  1  1  1  1  1  1  1  1
CENTRE ASSIGNMENTS    1  1  1  1  1  1  1  1  1  1  1  1  1  1  1  1  2  2  2  2
CENTRE ASSIGNMENTS    2  2  2  2  2  3  3  3  3  3  3  3  3  3  4  4  4  4  4  4
CENTRE ASSIGNMENTS    4  4  4  5  5  5  5  5  5  5  5  5
TYPE ASSIGNMENTS      1  1  1  1  1  1  1  1  1  2  2  2  3  3  3  4  4  4  1  2
TYPE ASSIGNMENTS      3  4  1  2  3  4  1  2  3  4  5  6  7  8  9 10  1  1  1  1
TYPE ASSIGNMENTS      1  1  2  3  4  1  1  1  1  1  1  2  3  4  1  1  1  1  1  1
TYPE ASSIGNMENTS      2  3  4  1  1  1  1  1  1  2  3  4
EXPONENTS  0.4563240D+04 0.6820240D+03 0.1549730D+03 0.4445530D+02 0.1302900D+02
EXPONENTS  0.1827730D+01 0.2096420D+02 0.4803310D+01 0.1459330D+01 0.2096420D+02
EXPONENTS  0.4803310D+01 0.1459330D+01 0.2096420D+02 0.4803310D+01 0.1459330D+01
EXPONENTS  0.2096420D+02 0.4803310D+01 0.1459330D+01 0.4834560D+00 0.4834560D+00
EXPONENTS  0.4834560D+00 0.4834560D+00 0.1455850D+00 0.1455850D+00 0.1455850D+00
EXPONENTS  0.1455850D+00 0.4380000D-01 0.4380000D-01 0.4380000D-01 0.4380000D-01
EXPONENTS  0.6260000D+00 0.6260000D+00 0.6260000D+00 0.6260000D+00 0.6260000D+00
EXPONENTS  0.6260000D+00 0.3386500D+02 0.5094790D+01 0.1158790D+01 0.3258400D+00
EXPONENTS  0.1027410D+00 0.3600000D-01 0.7500000D+00 0.7500000D+00 0.7500000D+00
EXPONENTS  0.3386500D+02 0.5094790D+01 0.1158790D+01 0.3258400D+00 0.1027410D+00
EXPONENTS  0.3600000D-01 0.7500000D+00 0.7500000D+00 0.7500000D+00 0.3386500D+02
EXPONENTS  0.5094790D+01 0.1158790D+01 0.3258400D+00 0.1027410D+00 0.3600000D-01
EXPONENTS  0.7500000D+00 0.7500000D+00 0.7500000D+00 0.3386500D+02 0.5094790D+01
EXPONENTS  0.1158790D+01 0.3258400D+00 0.1027410D+00 0.3600000D-01 0.7500000D+00
EXPONENTS  0.7500000D+00 0.7500000D+00
MO    1     MO 0.0        OCC NO =    2.0000005  ORB. ENERGY =    0.000000
  0.43793602D+00  0.81525856D+00  0.13410927D+01  0.18008624D+01  0.16955798D+01
  0.13933708D+00  0.37299298D+00  0.99111218D+00 -0.13360885D-02  0.94806000D-07
  0.88715058D-07  0.68713241D-07 -0.38780934D-07 -0.36289399D-07 -0.28107542D-07
  0.44801617D-07  0.41923275D-07  0.32471197D-07  0.28637309D-02  0.21334687D-07
 -0.11219636D-07  0.16853477D-07 -0.13413500D-03  0.26790329D-08 -0.96907023D-09
  0.92148476D-09 -0.81002518D-04 -0.40604779D-09  0.20842792D-09 -0.30690049D-09
  0.10818324D-07  0.18315545D-08 -0.12649879D-07  0.16877349D-08  0.96826175D-08
 -0.35932407D-08  0.17404323D-03  0.31394915D-03  0.46284381D-03  0.76507854D-04
  0.92770594D-04  0.58338871D-05  0.39541575D-05  0.16324661D-04  0.73520935D-05
  0.17404683D-03  0.31395565D-03  0.46285338D-03  0.76515447D-04  0.92772166D-04
  0.58347237D-05  0.31723668D-06 -0.12829429D-04  0.13092876D-04  0.17403675D-03
  0.31393747D-03  0.46282659D-03  0.76489846D-04  0.92768703D-04  0.58324571D-05
 -0.16690938D-04  0.58956360D-06 -0.75870589D-05  0.17404510D-03  0.31395253D-03
  0.46284879D-03  0.76516327D-04  0.92770442D-04  0.58342453D-05  0.12404840D-04
 -0.40800397D-05 -0.12861441D-04
MO    2     MO 0.0        OCC NO =    1.9816466  ORB. ENERGY =    0.000000
 -0.82204451D-01 -0.15303122D+00 -0.25173491D+00 -0.33803773D+00 -0.31827527D+00
 -0.26154798D-01 -0.13751573D+00 -0.36540504D+00  0.49259152D-03  0.20590504D-06
  0.19267638D-06  0.14923531D-06 -0.58331574D-06 -0.54583981D-06 -0.42277403D-06
  0.14532229D-05  0.13598586D-05  0.10532630D-05  0.17687982D+00  0.52805680D-07
 -0.15091350D-06  0.37625733D-06  0.47024828D-01 -0.24058558D-07 -0.21779176D-08
  0.21285403D-07  0.43353492D-02  0.19242912D-07 -0.92449100D-08  0.12826209D-07
  0.32842754D-06  0.17494595D-07 -0.34592214D-06  0.28149754D-07  0.21820922D-06
 -0.21063738D-07  0.21209365D-01  0.38258668D-01  0.56403361D-01  0.34437239D-01
 -0.10047114D-02 -0.40932732D-03 -0.37505312D-02 -0.15481266D-01 -0.69687466D-02
  0.21209367D-01  0.38258673D-01  0.56403368D-01  0.34437238D-01 -0.10047346D-02
 -0.40935993D-03 -0.30049631D-03  0.12169837D-01 -0.12413922D-01  0.21209517D-01
  0.38258943D-01  0.56403767D-01  0.34437435D-01 -0.10046653D-02 -0.40927543D-03
  0.15822261D-01 -0.55885452D-03  0.71863330D-02  0.21209203D-01  0.38258376D-01
  0.56402930D-01  0.34437035D-01 -0.10047279D-02 -0.40933730D-03 -0.11771775D-01
  0.38705396D-02  0.12195986D-01
MO    3     MO 0.0        OCC NO =    1.9694559  ORB. ENERGY =    0.000000
  0.25306389D-06  0.47110192D-06  0.77495823D-06  0.10406388D-05  0.97980070D-06
  0.80516746D-07  0.49715879D-06  0.13210440D-05 -0.17808596D-08  0.48389289D+00
  0.45280453D+00  0.35071461D+00  0.25432871D-01  0.23798901D-01  0.18433169D-01
  0.12939806D+00  0.12108470D+00  0.93784780D-01 -0.86440036D-06  0.16554452D+00
  0.87008271D-02  0.44268250D-01 -0.11806280D-06  0.24959155D-01  0.13118297D-02
  0.66743912D-02  0.15861506D-06 -0.85819344D-04 -0.45096426D-05 -0.22938275D-04
 -0.13888541D-01  0.91379101D-02  0.47506311D-02  0.12218074D-02 -0.26339528D-01
  0.61458220D-02  0.15758617D-01  0.28426297D-01  0.41907854D-01  0.29100561D-01
  0.50481034D-02  0.56708616D-03  0.91910089D-02 -0.79568500D-02 -0.83660474D-03
  0.73070460D-02  0.13180868D-01  0.19432074D-01  0.13493516D-01  0.23407155D-02
  0.26293204D-03  0.11185100D-01  0.37079657D-02 -0.16700461D-03 -0.43431029D-01
 -0.78343380D-01 -0.11549879D+00 -0.80201804D-01 -0.13912906D-01 -0.15630052D-02
 -0.12817240D-01  0.14424367D-02 -0.79251163D-02  0.20365881D-01  0.36737144D-01
  0.54160233D-01  0.37608463D-01  0.65239441D-02  0.73290189D-03  0.28611157D-02
  0.33541205D-02  0.11715280D-01
MO    4     MO 0.0        OCC NO =    1.9694557  ORB. ENERGY =    0.000000
 -0.15214605D-06 -0.28323400D-06 -0.46591726D-06 -0.62564868D-06 -0.58907182D-06
 -0.48407953D-07 -0.28969336D-06 -0.76976949D-06  0.10377031D-08 -0.25530112D-01
 -0.23889894D-01 -0.18503647D-01  0.50088109D+00  0.46870129D+00  0.36302726D+00
 -0.29750184D-02 -0.27838842D-02 -0.21562259D-02  0.47864807D-06 -0.87341250D-02
  0.17135675D+00 -0.10178071D-02  0.10989118D-06 -0.13168516D-02  0.25835593D-01
 -0.15343306D-03 -0.64817686D-07  0.45274817D-05 -0.88831531D-04  0.53207287D-06
 -0.19615498D-03  0.79857563D-02 -0.77896013D-02  0.10069150D-01  0.10304866D-01
  0.29571195D-01  0.38698064D-01  0.69805787D-01  0.10291213D+00  0.71462063D-01
  0.12397057D-01  0.13926955D-02 -0.56798656D-02 -0.93352221D-02 -0.95190107D-02
 -0.31110191D-01 -0.56118346D-01 -0.82733235D-01 -0.57449784D-01 -0.99662156D-02
 -0.11196057D-02 -0.26665904D-03 -0.16090712D-02  0.13463545D-01  0.35733153D-02
  0.64457509D-02  0.95027359D-02  0.65987117D-02  0.11447555D-02  0.12861155D-03
  0.13869257D-02  0.11587607D-01  0.83054459D-03 -0.11161393D-01 -0.20133560D-01
 -0.29682174D-01 -0.20611231D-01 -0.35755261D-02 -0.40166479D-03  0.40098126D-02
  0.10143736D-01 -0.48392405D-02
MO    5     MO 0.0        OCC NO =    1.9694556  ORB. ENERGY =    0.000000
  0.19308606D-06  0.35944762D-06  0.59128795D-06  0.79400048D-06  0.74758138D-06
  0.61433739D-07  0.34780812D-06  0.92419130D-06 -0.12458744D-08 -0.12937768D+00
 -0.12106563D+00 -0.93770013D-01 -0.37165246D-02 -0.34777514D-02 -0.26936529D-02
  0.48455148D+00  0.45342080D+00  0.35119194D+00 -0.51901495D-06 -0.44261618D-01
 -0.12714890D-02  0.16577036D+00 -0.22326192D-06 -0.66733560D-02 -0.19167995D-03
  0.24993556D-01  0.16479225D-07  0.22949326D-04  0.66386264D-06 -0.85911696D-04
 -0.12111970D-01  0.13119202D-01 -0.10072323D-02  0.88676493D-02  0.17945256D-01
 -0.17050329D-01  0.14358768D-01  0.25901169D-01  0.38185150D-01  0.26515849D-01
  0.45999586D-02  0.51673677D-03 -0.48981906D-02 -0.78757641D-02  0.77712697D-02
  0.30509187D-01  0.55034220D-01  0.81134947D-01  0.56340257D-01  0.97739390D-02
  0.10979814D-02 -0.33323819D-02  0.12923718D-01 -0.19937226D-02 -0.72819939D-02
 -0.13135678D-01 -0.19365452D-01 -0.13447529D-01 -0.23329294D-02 -0.26206446D-03
 -0.70484103D-02  0.56075224D-04  0.94438707D-02 -0.37585929D-01 -0.67799653D-01
 -0.99954559D-01 -0.69408710D-01 -0.12041024D-01 -0.13526687D-02  0.12492604D-01
 -0.51841650D-02 -0.47851955D-02
MO    6     MO 0.0        OCC NO =    0.0158561  ORB. ENERGY =    0.000000
 -0.10941989D-05 -0.20369528D-05 -0.33507682D-05 -0.44995193D-05 -0.42364671D-05
 -0.34813870D-06 -0.18102361D-05 -0.48101362D-05  0.64843996D-08  0.25711270D+00
  0.24059414D+00  0.18634946D+00  0.40436500D-01  0.37838601D-01  0.29307459D-01
 -0.10554356D+01 -0.98762769D+00 -0.76495582D+00  0.50519492D-05  0.89784482D-01
  0.14120582D-01 -0.36855779D+00 -0.44701553D-06 -0.64746884D-03 -0.10176117D-03
  0.26585954D-02 -0.11027451D-06 -0.62242367D-04 -0.97862327D-05  0.25554683D-03
 -0.18250100D-01  0.19236126D-01 -0.98602637D-03  0.12640553D-01  0.25171515D-01
 -0.26274903D-01  0.17564366D-01  0.31683611D-01  0.46709994D-01  0.48607917D-01
  0.81393269D-02  0.32541261D-03  0.84046209D-02  0.14341337D-01 -0.14947980D-01
  0.41184377D-01  0.74290740D-01  0.10952413D+00  0.11397482D+00  0.19084674D-01
  0.76301068D-03  0.57415262D-02 -0.24141097D-01  0.44075479D-02 -0.10784524D-01
 -0.19453743D-01 -0.28679945D-01 -0.29844307D-01 -0.49971589D-02 -0.19977630D-03
  0.13619335D-01  0.50587063D-03 -0.17184914D-01 -0.47965754D-01 -0.86523377D-01
 -0.12755826D+00 -0.13274117D+00 -0.22226659D-01 -0.88861883D-03 -0.22978979D-01
  0.10046638D-01  0.80764257D-02
MO    7     MO 0.0        OCC NO =    0.0158559  ORB. ENERGY =    0.000000
  0.32025209D-06  0.59617899D-06  0.98070883D-06  0.13169274D-05  0.12399368D-05
  0.10189386D-06  0.47777614D-06  0.12695407D-05 -0.17114295D-08  0.60124940D-01
  0.56262130D-01  0.43577194D-01 -0.10850623D+01 -0.10153509D+01 -0.78642856D+00
 -0.26924239D-01 -0.25194454D-01 -0.19514078D-01 -0.15598066D-05  0.20995693D-01
 -0.37890391D+00 -0.94018070D-02  0.33584232D-06 -0.15145683D-03  0.27332966D-02
  0.67911245D-04  0.93617575D-08 -0.14554988D-04  0.26267523D-03  0.65218993D-05
 -0.91354224D-03  0.12409537D-01 -0.11495995D-01  0.15244291D-01  0.15854807D-01
  0.42824193D-01  0.51065965D-01  0.92115714D-01  0.13580284D+00  0.14132265D+00
  0.23663397D-01  0.94614879D-03  0.10732101D-01  0.17718671D-01  0.17176960D-01
 -0.39269676D-01 -0.70836892D-01 -0.10443225D+00 -0.10867767D+00 -0.18197344D-01
 -0.72758714D-03  0.61082268D-03  0.21566002D-02 -0.24801839D-01  0.41567958D-02
  0.74982665D-02  0.11054421D-01  0.11503614D-01  0.19261334D-02  0.77020076D-04
 -0.20746141D-02 -0.21517089D-01 -0.20239187D-02 -0.15952711D-01 -0.28776414D-01
 -0.42424019D-01 -0.44148597D-01 -0.73924207D-02 -0.29556755D-03 -0.81490627D-02
 -0.18557052D-01  0.91475442D-02
MO    8     MO 0.0        OCC NO =    0.0158557  ORB. ENERGY =    0.000000
  0.79539104D-07  0.14806943D-06  0.24357281D-06  0.32707741D-06  0.30795571D-06
  0.25306771D-07 -0.10750878D-07 -0.28567096D-07  0.38510441D-10  0.10545107D+01
  0.98676224D+00  0.76428550D+00  0.52008318D-01  0.48666971D-01  0.37694450D-01
  0.25888012D+00  0.24224800D+00  0.18763044D+00 -0.58923625D-06  0.36823446D+00
  0.18161203D-01  0.90399947D-01  0.59306096D-06 -0.26569578D-02 -0.13105640D-03
 -0.65246923D-03 -0.54713482D-07 -0.25524943D-03 -0.12589778D-04 -0.62674347D-04
  0.20099800D-01 -0.13034254D-01 -0.70655464D-02 -0.14878454D-02  0.39402788D-01
 -0.94405144D-02 -0.19999129D-01 -0.36075575D-01 -0.53184906D-01 -0.55347505D-01
 -0.92674620D-02 -0.37056012D-03  0.17288951D-01 -0.14375338D-01 -0.17764700D-02
 -0.88281762D-02 -0.15924770D-01 -0.23477309D-01 -0.24431890D-01 -0.40909524D-02
 -0.16356355D-03  0.20889959D-01  0.63852924D-02 -0.29444989D-03  0.56414380D-01
  0.10176349D+00  0.15002621D+00  0.15612551D+00  0.26141665D-01  0.10453572D-02
 -0.23407935D-01  0.26060536D-02 -0.15019468D-01 -0.27587170D-01 -0.49763318D-01
 -0.73364248D-01 -0.76348109D-01 -0.12783757D-01 -0.51117423D-03  0.48574594D-02
  0.63520744D-02  0.21909262D-01
MO    9     MO 0.0        OCC NO =    0.0123304  ORB. ENERGY =    0.000000
  0.11990128D+00  0.22320735D+00  0.36717400D+00  0.49305306D+00  0.46422804D+00
  0.38148708D-01  0.20047124D+00  0.53268962D+00 -0.71810282D-03 -0.29196638D-05
 -0.27320859D-05 -0.21161061D-05  0.60165036D-05  0.56299650D-05  0.43606255D-05
 -0.14480648D-04 -0.13550319D-04 -0.10495245D-04 -0.60097818D+00 -0.96675482D-06
  0.20697686D-05 -0.50055074D-05  0.58147243D-01  0.71551851D-06 -0.37175460D-06
  0.55300360D-06  0.21607557D-01  0.65636212D-07 -0.33803577D-07  0.49915486D-07
  0.38063879D-05 -0.49160884D-08 -0.38014718D-05  0.21150763D-06  0.21853921D-05
  0.21588438D-06  0.38813249D-01  0.70013563D-01  0.10321845D+00  0.99008797D-01
 -0.93122151D-02 -0.20418936D-02 -0.13435909D-03 -0.55865852D-03 -0.25231837D-03
  0.38813031D-01  0.70013170D-01  0.10321787D+00  0.99009185D-01 -0.93120836D-02
 -0.20419641D-02 -0.10190624D-04  0.43770981D-03 -0.44828777D-03  0.38814297D-01
  0.70015454D-01  0.10322123D+00  0.99010272D-01 -0.93122583D-02 -0.20417717D-02
  0.57186262D-03 -0.20380570D-04  0.26114323D-03  0.38812454D-01  0.70012130D-01
  0.10321633D+00  0.99006743D-01 -0.93123473D-02 -0.20419251D-02 -0.42301307D-03
  0.13949600D-03  0.44169717D-03
MO   10     MO 0.0        OCC NO =    0.0078413  ORB. ENERGY =    0.000000
  0.11981487D-05  0.22304650D-05  0.36690939D-05  0.49269774D-05  0.46389349D-05
  0.38121217D-06  0.18543787D-05  0.49274315D-05 -0.66425219D-08  0.39384415D-01
  0.36854109D-01  0.28544932D-01  0.45813434D-01  0.42870087D-01  0.33204539D-01
  0.50531713D+00  0.47285234D+00  0.36624241D+00 -0.67470091D-05  0.60355236D-02
  0.70222480D-02  0.77456634D-01  0.11856503D-05 -0.72679183D-02 -0.84535959D-02
 -0.93239756D-01 -0.25791891D-06  0.13088698D-03  0.15222700D-03  0.16790246D-02
 -0.25754595D+00  0.25716051D+00  0.38544376D-03  0.15314669D+00  0.14182762D+00
 -0.18581895D+00  0.31688906D-01  0.57162265D-01  0.84272245D-01  0.28025303D-01
 -0.64896214D-02 -0.45438391D-02 -0.66406886D-02 -0.44456649D-02 -0.97314126D-01
  0.41451805D-01  0.74773142D-01  0.11023532D+00  0.36658328D-01 -0.84897186D-02
 -0.59436563D-02 -0.76303907D-02 -0.13700147D-01 -0.94582084D-01 -0.30607554D-01
 -0.55211660D-01 -0.81396540D-01 -0.27067196D-01  0.62678172D-02  0.43889532D-02
 -0.32412901D-02 -0.91684363D-02 -0.97321105D-01 -0.42533052D-01 -0.76723557D-01
 -0.11311075D+00 -0.37612465D-01  0.87118843D-02  0.60987296D-02 -0.12398810D-01
 -0.74787019D-02 -0.94542768D-01
MO   11     MO 0.0        OCC NO =    0.0078412  ORB. ENERGY =    0.000000
 -0.10182532D-05 -0.18955729D-05 -0.31181996D-05 -0.41872188D-05 -0.39424243D-05
 -0.32397525D-06 -0.15583753D-05 -0.41408951D-05  0.55822159D-08 -0.18033352D-01
 -0.16874775D-01 -0.13070165D-01  0.50663342D+00  0.47408406D+00  0.36719643D+00
 -0.44528290D-01 -0.41667508D-01 -0.32273096D-01  0.57418422D-05 -0.27641041D-02
  0.77656905D-01 -0.68254433D-02 -0.12271132D-05  0.33276306D-02 -0.93485502D-01
  0.82162912D-02  0.14720401D-06 -0.59923064D-04  0.16834762D-02 -0.14796041D-03
  0.14354685D-01  0.10940702D+00 -0.12376171D+00  0.14917568D+00  0.14367182D+00
  0.49511889D+00  0.54032409D-01  0.97466757D-01  0.14369169D+00  0.47784376D-01
 -0.11064802D-01 -0.77477507D-02  0.54295951D-02 -0.91848691D-01  0.12259729D-01
 -0.48664819D-01 -0.87784391D-01 -0.12941733D+00 -0.43038776D-01  0.99658210D-02
  0.69779997D-02  0.34117204D-02 -0.94122118D-01  0.31353336D-02  0.64306681D-02
  0.11600008D-01  0.17101469D-01  0.56862144D-02 -0.13169072D-02 -0.92212385D-03
  0.26001137D-02 -0.99596898D-01  0.83265486D-02 -0.11798273D-01 -0.21282402D-01
 -0.31375870D-01 -0.10435347D-01  0.24158934D-02  0.16917452D-02  0.22544653D-02
 -0.99206445D-01  0.10096217D-01
MO   12     MO 0.0        OCC NO =    0.0078412  ORB. ENERGY =    0.000000
 -0.17367079D-05 -0.32330430D-05 -0.53183253D-05 -0.71416183D-05 -0.67241028D-05
 -0.55256429D-06 -0.26159477D-05 -0.69510629D-05  0.93705184D-08 -0.50705277D+00
 -0.47447647D+00 -0.36750036D+00 -0.14459756D-01 -0.13530769D-01 -0.10480104D-01
  0.40834083D-01  0.38210641D-01  0.29595618D-01  0.98118881D-05 -0.77719136D-01
 -0.22162733D-02  0.62603447D-02 -0.26171471D-05  0.93565092D-01  0.26682133D-02
 -0.75341821D-02  0.79113276D-07 -0.16849194D-02 -0.48050672D-04  0.13566646D-03
  0.14488854D+00 -0.64892385D-01 -0.79996157D-01  0.32708995D-01  0.49840628D+00
 -0.17419493D+00 -0.13323902D-01 -0.24034419D-01 -0.35433068D-01 -0.11785713D-01
  0.27278395D-02  0.19105813D-02  0.99250482D-01  0.92338900D-03 -0.88944193D-02
  0.38404648D-02  0.69276506D-02  0.10213183D-01  0.33943937D-02 -0.78689757D-03
 -0.55063293D-03  0.99726058D-01  0.24094523D-02 -0.75870789D-02  0.55883543D-01
  0.10080594D+00  0.14861453D+00  0.49422931D-01 -0.11441579D-01 -0.80134107D-02
  0.91487459D-01  0.31348379D-02 -0.11768593D-01 -0.46399955D-01 -0.83698899D-01
 -0.12339424D+00 -0.41038017D-01  0.95013935D-02  0.66533120D-02  0.94634958D-01
  0.45142957D-02 -0.27618523D-02
MO   13     MO 0.0        OCC NO =    0.0057553  ORB. ENERGY =    0.000000
 -0.17012421D-06 -0.31670201D-06 -0.52097183D-06 -0.69957774D-06 -0.65867881D-06
 -0.54128023D-07 -0.25423506D-06 -0.67555017D-06  0.91068882D-09 -0.23491580D-06
 -0.21982331D-06 -0.17026165D-06  0.20325332D-05  0.19019503D-05  0.14731340D-05
 -0.33329257D-06 -0.31187973D-06 -0.24156291D-06  0.13233789D-05 -0.68323284D-06
  0.26711304D-05 -0.38534257D-06 -0.14086049D-05  0.22444996D-06 -0.49224691D-06
  0.57146414D-07 -0.88982423D-06  0.20111114D-08 -0.97070932D-08  0.14648456D-08
  0.11430547D+00 -0.12843706D+00  0.14131589D-01  0.83326407D+00 -0.19774829D+00
 -0.13647288D+00 -0.19380484D-06 -0.34959628D-06 -0.51539707D-06 -0.72964195D-06
  0.43674172D-06  0.80281945D-07  0.17355453D+00 -0.25273869D-01 -0.37258156D-01
  0.34557952D-06  0.62337616D-06  0.91902077D-06  0.10614734D-05  0.30689153D-06
  0.14699788D-06 -0.17562398D+00  0.23585455D-01  0.27371729D-01 -0.60547309D-07
 -0.10921871D-06 -0.16101716D-06 -0.16223522D-06  0.44757541D-06  0.90338111D-07
 -0.24258291D-01 -0.17309884D+00  0.39948658D-01  0.18835526D-06  0.33976602D-06
  0.50090467D-06  0.43589223D-06  0.30917987D-06  0.13286909D-06  0.26325108D-01
  0.17479487D+00 -0.30063233D-01
MO   14     MO 0.0        OCC NO =    0.0057552  ORB. ENERGY =    0.000000
  0.16152943D-05  0.30070203D-05  0.49465202D-05  0.66423464D-05  0.62540196D-05
  0.51393442D-06  0.24138741D-05  0.64141156D-05 -0.86466759D-08 -0.91339601D-06
 -0.85471362D-06 -0.66200874D-06  0.71071075D-06  0.66505016D-06  0.51510705D-06
  0.10726182D-05  0.10037063D-05  0.77740936D-06 -0.12565246D-04 -0.10175846D-05
  0.12559162D-05  0.20483103D-05  0.13375046D-04  0.13956486D-06 -0.31621115D-06
 -0.54535944D-06  0.84491058D-05  0.39519424D-08 -0.41726278D-08 -0.66277822D-08
 -0.22443988D+00 -0.24347974D+00  0.46791961D+00  0.81118493D-01  0.29720362D+00
  0.24386344D+00 -0.91942132D-06 -0.16585049D-05 -0.24450734D-05 -0.20676365D-05
 -0.34247932D-05 -0.11122727D-05  0.23041131D-01 -0.77597774D-01  0.15999087D+00
 -0.75031517D-06 -0.13534615D-05 -0.19953590D-05 -0.16382315D-05 -0.35109398D-05
 -0.10845926D-05  0.35994414D-01  0.12586634D+00  0.12252315D+00 -0.65423645D-06
 -0.11801492D-05 -0.17398510D-05 -0.15537329D-05 -0.36146155D-05 -0.10605726D-05
  0.70259603D-01 -0.46378081D-01 -0.15830339D+00 -0.33071821D-06 -0.59656846D-06
 -0.87949915D-06 -0.49020391D-06 -0.36962338D-05 -0.10200526D-05 -0.12929771D+00
 -0.18863205D-02 -0.12420363D+00
MO   15     MO 0.0        OCC NO =    0.0023462  ORB. ENERGY =    0.000000
 -0.16693705D-01 -0.31076881D-01 -0.51121176D-01 -0.68647160D-01 -0.64633889D-01
 -0.53113969D-02 -0.90928445D-03 -0.24161391D-02  0.32571242D-05  0.74868112D-06
  0.70058107D-06  0.54262712D-06 -0.19909412D-07 -0.18630304D-07 -0.14429891D-07
 -0.42404955D-06 -0.39680590D-06 -0.30734151D-06  0.22892248D+00 -0.10541935D-05
  0.79296611D-06 -0.14811803D-05 -0.39435231D+00 -0.30601634D-05  0.13686925D-05
 -0.17639308D-05  0.32318875D-01  0.81487348D-07 -0.35614333D-07  0.44712337D-07
 -0.51645564D-05 -0.37367618D-05  0.89013181D-05  0.12832013D-06  0.63456799D-05
  0.35714530D-05  0.11378705D+00  0.20525561D+00  0.30260087D+00  0.11771732D+00
  0.35311319D-02 -0.62313856D-02 -0.26601254D-01 -0.10978747D+00 -0.49415638D-01
  0.11378771D+00  0.20525679D+00  0.30260261D+00  0.11771920D+00  0.35315090D-02
 -0.62315419D-02 -0.21329737D-02  0.86308073D-01 -0.88029850D-01  0.11378599D+00
  0.20525369D+00  0.30259804D+00  0.11771351D+00  0.35309811D-02 -0.62311501D-02
  0.11220720D+00 -0.39623252D-02  0.50954372D-01  0.11378727D+00  0.20525600D+00
  0.30260145D+00  0.11771874D+00  0.35307806D-02 -0.62314196D-02 -0.83490340D-01
  0.27449569D-01  0.86480900D-01
MO   16     MO 0.0        OCC NO =    0.0011863  ORB. ENERGY =    0.000000
 -0.32744103D-10 -0.60956187D-10 -0.10027235D-09 -0.13464894D-09 -0.12677706D-09
 -0.10418115D-10  0.96412329D-10  0.25618561D-09 -0.34535610D-12  0.32138642D-03
  0.30073850D-03  0.23293360D-03 -0.13300415D-03 -0.12445912D-03 -0.96398397D-04
 -0.26767904D-03 -0.25048163D-03 -0.19400770D-03  0.13076485D-09  0.75248093D-06
 -0.11421754D-05 -0.24710177D-05 -0.92152737D-09  0.12277833D-04 -0.55131974D-05
 -0.11145926D-04  0.16557485D-09 -0.12187512D-05  0.53020624D-06  0.10694519D-05
  0.23749603D-04 -0.84024799D-04  0.60275196D-04 -0.99001876D-04 -0.31772799D-03
  0.65828883D-04  0.35638332D-04  0.64286467D-04  0.94775197D-04  0.88712985D-05
 -0.15995341D-04 -0.11432511D-05  0.47024353D+00 -0.12233121D+00  0.18607980D-01
  0.21040220D-04  0.37953556D-04  0.55953545D-04  0.49754799D-05 -0.94442779D-05
 -0.66253601D-06  0.19228773D+00 -0.11418537D+00 -0.11661853D+00  0.41480639D-04
  0.74825155D-04  0.11031200D-03  0.75050427D-05 -0.18848510D-04 -0.11541993D-05
 -0.21668416D+00  0.32027913D+00  0.50206598D+00 -0.98158425D-04 -0.17706379D-03
 -0.26103870D-03 -0.21350955D-04  0.44288455D-04  0.29598646D-05 -0.44594405D+00
 -0.83723583D-01 -0.40397611D+00
MO   17     MO 0.0        OCC NO =    0.0011863  ORB. ENERGY =    0.000000
  0.44930903D-10  0.83643047D-10  0.13759203D-09  0.18476300D-09  0.17396133D-09
  0.14295560D-10 -0.47112312D-10 -0.12518624D-09  0.16875979D-12 -0.17419193D-03
 -0.16300073D-03 -0.12625037D-03  0.21005191D-04  0.19655684D-04  0.15224087D-04
 -0.53732430D-05 -0.50280316D-05 -0.38944048D-05 -0.18397570D-09 -0.61508919D-06
 -0.60211023D-06  0.58817877D-06  0.71138936D-09 -0.67937353D-05  0.38582644D-06
  0.86419972D-07 -0.10138451D-09  0.66933791D-06 -0.53604425D-07  0.32266500D-08
  0.41565999D-04 -0.18079005D-04 -0.23486994D-04  0.90215463D-05  0.12554091D-03
 -0.23493146D-04  0.47785097D-05  0.86197498D-05  0.12707783D-04  0.18522014D-05
 -0.21799404D-05 -0.17704001D-06  0.18741649D+00 -0.24977415D+00  0.45400188D+00
  0.45542516D-05  0.82152201D-05  0.12111400D-04 -0.35752200D-06 -0.21143171D-05
 -0.62986746D-07 -0.45746224D+00 -0.31789696D+00 -0.30057740D+00 -0.36158656D-04
 -0.65225057D-04 -0.96158926D-04 -0.73291385D-05  0.16394415D-04  0.10496478D-05
  0.13569443D+00  0.49554932D+00 -0.26029579D+00  0.26825598D-04  0.48389552D-04
  0.71338955D-04  0.58335724D-05 -0.12100403D-04 -0.80954290D-06  0.13440268D+00
  0.72112307D-01  0.10687317D+00
MO   18     MO 0.0        OCC NO =    0.0011863  ORB. ENERGY =    0.000000
  0.20845748D-10  0.38806295D-10  0.63835990D-10  0.85721021D-10  0.80709572D-10
  0.66324428D-11  0.27372053D-10  0.72732670D-10 -0.98048720D-13  0.14061928D-03
  0.13158500D-03  0.10191767D-03  0.19164748D-03  0.17933483D-03  0.13890175D-03
 -0.11948954D-03 -0.11181277D-03 -0.86603314D-04 -0.83961271D-10  0.63738809D-06
  0.21017340D-05 -0.90632726D-06 -0.12186899D-10  0.55475975D-05  0.80803348D-05
 -0.48935619D-05  0.55987419D-11 -0.54395704D-06 -0.77067839D-06  0.47277448D-06
  0.58525447D-05  0.11785450D-04 -0.17637995D-04  0.16661972D-04 -0.88978761D-04
  0.20647079D-03 -0.34889826D-04 -0.62936268D-04 -0.92784648D-04 -0.81225059D-05
  0.15630101D-04  0.10992455D-05 -0.35571798D+00 -0.76460008D-01  0.36137185D+00
  0.49333534D-04  0.88990656D-04  0.13119568D-03  0.11495406D-04 -0.22152614D-04
 -0.15442544D-05  0.39379496D+00 -0.30114105D+00 -0.30480781D+00  0.16222864D-04
  0.29263733D-04  0.43142456D-04  0.32950516D-05 -0.73551371D-05 -0.47138176D-06
 -0.60324486D-01 -0.23019992D+00  0.11494801D+00 -0.30666277D-04 -0.55317588D-04
 -0.81552705D-04 -0.66681698D-05  0.13877690D-04  0.91638570D-06  0.22205939D-01
  0.60774254D+00 -0.17147695D+00
MO   19     MO 0.0        OCC NO =    0.0011331  ORB. ENERGY =    0.000000
 -0.36531467D-06 -0.68006717D-06 -0.11187041D-05 -0.15022318D-05 -0.14144079D-05
 -0.11623131D-06  0.11125900D-06  0.29563601D-06 -0.39853799D-09  0.11112596D+01
  0.10398652D+01  0.80541577D+00  0.32112102D-01  0.30049015D-01  0.23274124D-01
  0.19597200D+00  0.18338151D+00  0.14203606D+00  0.18858270D-05 -0.36567872D-01
 -0.10565850D-02 -0.64468930D-02 -0.48229154D-05  0.27607066D-01  0.79776366D-03
  0.48687753D-02 -0.53528476D-08 -0.29959746D-02 -0.86574818D-04 -0.52833161D-03
 -0.25053581D+00  0.15261311D+00  0.97922704D-01  0.43486006D-02 -0.54920779D+00
  0.13569068D+00 -0.64641780D-01 -0.11660455D+00 -0.17190584D+00 -0.46729903D-02
  0.30877054D-01  0.13120211D-02 -0.20004852D+00  0.10129680D+00  0.86917455D-02
 -0.25466554D-01 -0.45938029D-01 -0.67724764D-01 -0.18405374D-02  0.12164854D-01
  0.51684019D-03 -0.22547954D+00 -0.39917642D-01 -0.57940615D-02  0.20337719D+00
  0.36686343D+00  0.54085340D+00  0.14707658D-01 -0.97143106D-01 -0.41280962D-02
  0.12069663D+00 -0.18749535D-01  0.11740177D+00 -0.11326814D+00 -0.20431956D+00
 -0.30122089D+00 -0.81883276D-02  0.54103779D-01  0.22990796D-02 -0.82303279D-01
 -0.53816731D-01 -0.18857276D+00
MO   20     MO 0.0        OCC NO =    0.0011331  ORB. ENERGY =    0.000000
  0.10179998D-06  0.18951012D-06  0.31174236D-06  0.41861767D-06  0.39414432D-06
  0.32389462D-07 -0.36043527D-07 -0.95774401D-07  0.12911058D-09 -0.99473079D-01
 -0.93082294D-01 -0.72095834D-01  0.10541959D+01  0.98646763D+00  0.76405731D+00
  0.39131401D+00  0.36617350D+00  0.28361553D+00 -0.53546212D-06  0.32738688D-02
 -0.34692381D-01 -0.12875111D-01  0.13901533D-05 -0.24711828D-02  0.26188504D-01
  0.97218828D-02 -0.19275115D-09  0.26815199D-03 -0.28418624D-02 -0.10548438D-02
 -0.10095398D+00  0.24582950D+00 -0.14487552D+00  0.24673727D+00  0.28550200D+00
  0.43099902D+00 -0.20017214D+00 -0.36108198D+00 -0.53233001D+00 -0.14477631D-01
  0.95614764D-01  0.40622925D-02  0.10130036D+00  0.11938612D+00  0.70624104D-01
  0.85766793D-01  0.15471106D+00  0.22808488D+00  0.61997471D-02 -0.40967626D-01
 -0.17406837D-02  0.17473954D-01 -0.10201823D+00 -0.19432433D+00  0.69580702D-02
  0.12551366D-01  0.18504022D-01  0.50383363D-03 -0.33238645D-02 -0.14113957D-03
  0.32053074D-01 -0.21483608D+00 -0.74117237D-01  0.10744700D+00  0.19381905D+00
  0.28574037D+00  0.77724489D-02 -0.51324028D-01 -0.21804231D-02 -0.11617245D+00
 -0.16979785D+00  0.61485906D-01
MO   21     MO 0.0        OCC NO =    0.0011331  ORB. ENERGY =    0.000000
 -0.23270572D-06 -0.43320330D-06 -0.71261536D-06 -0.95692282D-06 -0.90097891D-06
 -0.74039435D-07 -0.28280794D-07 -0.75147366D-07  0.10130390D-09 -0.17188040D+00
 -0.16083770D+00 -0.12457502D+00 -0.40249415D+00 -0.37663535D+00 -0.29171864D+00
  0.10405814D+01  0.97372777D+00  0.75418979D+00  0.10064609D-05  0.56576301D-02
  0.13247310D-01 -0.34241843D-01 -0.21655513D-05 -0.42697565D-02 -0.99981778D-02
  0.25850724D-01 -0.36983111D-07  0.46332381D-03  0.10849937D-02 -0.28049481D-02
 -0.23984914D+00  0.19746345D+00  0.42385686D-01  0.94006136D-01  0.21892941D+00
 -0.50793144D+00 -0.40301632D-02 -0.72698394D-02 -0.10717659D-01 -0.29362288D-03
  0.19254846D-02  0.81599208D-04  0.36646858D-01  0.88578693D-01 -0.20863665D+00
 -0.19041791D+00 -0.34348674D+00 -0.50639000D+00 -0.13772080D-01  0.90956859D-01
  0.38639083D-02  0.41281720D-01 -0.16788434D+00  0.42877507D-01  0.53419446D-01
  0.96361058D-01  0.14206160D+00  0.38659665D-02 -0.25516656D-01 -0.10839261D-02
  0.12597753D+00  0.78710556D-01 -0.17021946D+00  0.14102755D+00  0.25439358D+00
  0.37504320D+00  0.10203734D-01 -0.67364726D-01 -0.28616228D-02 -0.14402511D+00
  0.14081862D+00 -0.26555488D-01
MO   22     MO 0.0        OCC NO =    0.0008426  ORB. ENERGY =    0.000000
  0.34038911D-06  0.63366593D-06  0.10423745D-05  0.13997340D-05  0.13179023D-05
  0.10830081D-06  0.30122460D-06  0.80041018D-06 -0.10790088D-08 -0.44489424D+00
 -0.41631139D+00 -0.32244926D+00 -0.51067941D+00 -0.47787010D+00 -0.37012887D+00
  0.12144584D+01  0.11364339D+01  0.88021195D+00 -0.18819770D-05  0.68840616D-01
  0.79021559D-01 -0.18791602D+00  0.34184727D-06  0.32441212D-01  0.37238363D-01
 -0.88555544D-01 -0.48478900D-06 -0.93989534D-03 -0.10789011D-02  0.25655300D-02
  0.32661394D+00 -0.28146374D+00 -0.45150194D-01 -0.15158823D+00 -0.52481777D+00
  0.90247455D+00 -0.27171296D-02 -0.49013142D-02 -0.72258290D-02 -0.12289476D-01
 -0.65280917D-03  0.56679958D-03  0.72414611D-01  0.71883821D-01 -0.21500717D+00
  0.51702257D-01  0.93263496D-01  0.13749498D+00  0.23397274D+00  0.12438607D-01
 -0.10787208D-01  0.81927953D-01 -0.14571749D+00  0.29890832D-01 -0.48233483D-02
 -0.87006323D-02 -0.12827025D-01 -0.21828963D-01 -0.11600289D-02  0.10063578D-02
  0.10448498D+00  0.86460067D-01 -0.19515864D+00 -0.44162410D-01 -0.79662686D-01
 -0.11744380D+00 -0.19985449D+00 -0.10624996D-01  0.92143286D-02 -0.11645763D+00
  0.15079865D+00 -0.83477432D-02
MO   23     MO 0.0        OCC NO =    0.0008426  ORB. ENERGY =    0.000000
  0.36337060D-06  0.67644809D-06  0.11127508D-05  0.14942375D-05  0.14068809D-05
  0.11561277D-06  0.55676826D-06  0.14794375D-05 -0.19943851D-08 -0.28409821D+00
 -0.26584592D+00 -0.20590794D+00  0.12888608D+01  0.12060562D+01  0.93413713D+00