 gdb_3                                                   
GAUSSIAN             36 MOL ORBITALS     54 PRIMITIVES        3 NUCLEI
  O    1    (CENTRE  1)   0.00000000  0.20949663  0.00000000  CHARGE =  8.0
  H    2    (CENTRE  2)   1.50780972 -0.83798734  0.00000000  CHARGE =  1.0
  H    3    (CENTRE  3)  -1.50780972 -0.83798569  0.00000000  CHARGE =  1.0
CENTRE ASSIGNMENTS    1  1  1  1  1  1  1  1  1  1  1  1  1  1  1  1  1  1  1  1
CENTRE ASSIGNMENTS    1  1  1  1  1  1  1  1  1  1  1  1  1  1  1  1  2  2  2  2
CENTRE ASSIGNMENTS    2  2  2  2  2  3  3  3  3  3  3  3  3  3
TYPE ASSIGNMENTS      1  1  1  1  1  1  1  1  1  2  2  2  3  3  3  4  4  4  1  2
TYPE ASSIGNMENTS      3  4  1  2  3  4  1  2  3  4  5  6  7  8  9 10  1  1  1  1
TYPE ASSIGNMENTS      1  1  2  3  4  1  1  1  1  1  1  2  3  4
EXPONENTS  0.8588500D+04 0.1297230D+04 0.2992960D+03 0.8737710D+02 0.2567890D+02
EXPONENTS  0.3740040D+01 0.4211750D+02 0.9628370D+01 0.2853320D+01 0.4211750D+02
EXPONENTS  0.9628370D+01 0.2853320D+01 0.4211750D+02 0.9628370D+01 0.2853320D+01
EXPONENTS  0.4211750D+02 0.9628370D+01 0.2853320D+01 0.9056610D+00 0.9056610D+00
EXPONENTS  0.9056610D+00 0.9056610D+00 0.2556110D+00 0.2556110D+00 0.2556110D+00
EXPONENTS  0.2556110D+00 0.8450000D-01 0.8450000D-01 0.8450000D-01 0.8450000D-01
EXPONENTS  0.1292000D+01 0.1292000D+01 0.1292000D+01 0.1292000D+01 0.1292000D+01
EXPONENTS  0.1292000D+01 0.3386500D+02 0.5094790D+01 0.1158790D+01 0.3258400D+00
EXPONENTS  0.1027410D+00 0.3600000D-01 0.7500000D+00 0.7500000D+00 0.7500000D+00
EXPONENTS  0.3386500D+02 0.5094790D+01 0.1158790D+01 0.3258400D+00 0.1027410D+00
EXPONENTS  0.3600000D-01 0.7500000D+00 0.7500000D+00 0.7500000D+00
MO    1     MO 0.0        OCC NO =    2.0000018  ORB. ENERGY =    0.000000
  0.66333910D+00  0.12199830D+01  0.19968509D+01  0.26910099D+01  0.26619819D+01
  0.29628618D+00  0.63111358D+00  0.16869953D+01 -0.24095319D-02 -0.91578540D-08
 -0.94027867D-08 -0.71060964D-08 -0.15528622D-01 -0.15943945D-01 -0.12049535D-01
  0.23147636D-15  0.23766735D-15  0.17961559D-15  0.65636481D-02 -0.13034625D-08
 -0.14788233D-02 -0.13984423D-15  0.27306199D-03 -0.17008136D-09 -0.34719671D-03
  0.35733651D-16  0.10601974D-03 -0.65711035D-11 -0.22174354D-04 -0.22532040D-17
 -0.58114903D-04  0.13301464D-03 -0.74899738D-04  0.19229305D-08  0.52593409D-15
  0.94839127D-15  0.30361497D-03  0.54767809D-03  0.80742187D-03  0.39413975D-03
 -0.28409518D-04 -0.25767684D-05 -0.32562982D-03  0.52765589D-04 -0.97153930D-16
  0.30361526D-03  0.54767861D-03  0.80742264D-03  0.39413963D-03 -0.28409541D-04
 -0.25767804D-05  0.32562964D-03  0.52765035D-04  0.11911347D-15
MO    2     MO 0.0        OCC NO =    1.9851246  ORB. ENERGY =    0.000000
 -0.14899262D+00 -0.27402044D+00 -0.44851276D+00 -0.60442783D+00 -0.59790786D+00
 -0.66548851D-01 -0.27244752D+00 -0.72826463D+00  0.10401788D-02 -0.16001351D-06
 -0.16429317D-06 -0.12416352D-06  0.12879029D+00  0.13223487D+00  0.99935665D-01
 -0.22520113D-15 -0.23122428D-15 -0.17474628D-15  0.38056279D+00 -0.51865628D-07
  0.35724977D-01 -0.13389451D-15  0.11208773D+00  0.28318591D-08  0.13463601D-01
  0.21876119D-16  0.45374017D-03  0.41236063D-09  0.12038644D-02 -0.29253585D-18
  0.19269078D-01 -0.52403029D-02 -0.14028775D-01  0.24864329D-07  0.71740817D-16
 -0.23936756D-15  0.17495309D-01  0.31559041D-01  0.46526345D-01  0.14135440D-01
 -0.16590738D-02  0.36876403D-03 -0.15778650D-01  0.15421382D-01  0.60875061D-16
  0.17495338D-01  0.31559093D-01  0.46526422D-01  0.14135458D-01 -0.16590735D-02
  0.36876459D-03  0.15778667D-01  0.15421378D-01 -0.16930442D-16
MO    3     MO 0.0        OCC NO =    1.9709692  ORB. ENERGY =    0.000000
 -0.10860572D-18 -0.19974269D-18 -0.32693600D-18 -0.44058772D-18 -0.43583510D-18
 -0.48509690D-19  0.40694330D-18  0.10877780D-17 -0.15536710D-20  0.11314779D-16
  0.11617400D-16  0.87797766D-17 -0.90844912D-16 -0.93274618D-16 -0.70491701D-16
  0.16190502D+01  0.16623527D+01  0.12563125D+01  0.45274599D-17 -0.22985047D-18
 -0.15359529D-16  0.55002214D+00 -0.11360392D-16 -0.44871982D-18  0.82075983D-18
  0.10348611D+00 -0.20681446D-17 -0.74950440D-19  0.82615092D-19  0.73716603D-02
 -0.13501019D-16 -0.98078703D-18  0.14481806D-16  0.57484717D-17 -0.47380575D-07
 -0.70347328D-01  0.18701893D-17  0.33735547D-17  0.49735089D-17  0.13295927D-16
  0.15279817D-17  0.23355010D-19 -0.17468940D-16  0.73588613D-17  0.33853711D-01
  0.13829688D-17  0.24946783D-17  0.36778134D-17  0.10201352D-16  0.11030442D-17
 -0.13642561D-19  0.13575168D-16  0.38054361D-17  0.33853733D-01
MO    4     MO 0.0        OCC NO =    1.9676263  ORB. ENERGY =    0.000000
 -0.70451304D-02 -0.12957083D-01 -0.21207969D-01 -0.28580428D-01 -0.28272130D-01
 -0.31467688D-02 -0.17680774D-01 -0.47261515D-01  0.67503523D-04  0.10740953D-04
  0.11028227D-04  0.83345127D-05  0.14601502D+01  0.14992028D+01  0.11330130D+01
  0.38979110D-15  0.40021631D-15  0.30246094D-15  0.36846350D-01  0.36117449D-05
  0.49154515D+00  0.13041797D-15  0.49494763D-01  0.42308222D-06  0.76968316D-01
 -0.17276006D-16  0.31071072D-02  0.98651143D-08  0.50215269D-02  0.45274987D-17
  0.66934053D-02 -0.39965179D-01  0.33271774D-01 -0.95000013D-06  0.13554214D-14
  0.50143813D-16 -0.26344202D-01 -0.47521182D-01 -0.70058748D-01 -0.48164598D-01
 -0.32631804D-02 -0.17091722D-03  0.31561427D-01  0.11206353D-01  0.16163575D-15
 -0.26344794D-01 -0.47522250D-01 -0.70060322D-01 -0.48165611D-01 -0.32632456D-02
 -0.17092596D-03 -0.31561707D-01  0.11206034D-01 -0.23224011D-15
MO    5     MO 0.0        OCC NO =    1.9665635  ORB. ENERGY =    0.000000
  0.35398572D-07  0.65103441D-07  0.10656039D-06  0.14360364D-06  0.14205458D-06
  0.15811080D-07  0.10007184D-06  0.26749658D-06 -0.38206481D-09  0.13091299D+01
  0.13441434D+01  0.10158279D+01 -0.11655385D-04 -0.11967116D-04 -0.90440717D-05
  0.23695459D-15  0.24329209D-15  0.18386646D-15 -0.22755749D-06  0.44196228D+00
 -0.39370555D-05 -0.10566569D-15 -0.33746334D-06  0.51368741D-01 -0.61710967D-06
  0.24234881D-16 -0.22252481D-07  0.99174424D-03 -0.39320996D-07 -0.36098318D-17
 -0.11253296D-06  0.35614319D-06 -0.24361024D-06 -0.11388023D+00  0.60138100D-16
 -0.14991183D-15  0.37717907D-01  0.68037724D-01  0.10030554D+00  0.66098931D-01
  0.48623346D-02  0.58535102D-03 -0.18478338D-01  0.23309951D-01 -0.35453987D-16
 -0.37717509D-01 -0.68037004D-01 -0.10030448D+00 -0.66098177D-01 -0.48622794D-02
 -0.58534826D-03 -0.18477844D-01 -0.23310106D-01  0.40831201D-16
MO    6     MO 0.0        OCC NO =    0.0244725  ORB. ENERGY =    0.000000
 -0.45877577D-06 -0.84375948D-06 -0.13810535D-05 -0.18611448D-05 -0.18410686D-05
 -0.20491619D-06 -0.90590656D-06 -0.24215295D-05  0.34586655D-08  0.24370689D+01
  0.25022499D+01  0.18910595D+01 -0.29694113D-04 -0.30488301D-04 -0.23041340D-04
 -0.16666571D-14 -0.17112329D-14 -0.12932534D-14  0.16408668D-05  0.70994254D+00
 -0.75407360D-05  0.28473119D-15  0.10532996D-05 -0.88280922D-02  0.78119675D-06
  0.17303843D-16  0.17606858D-07 -0.33251301D-02  0.11629479D-06 -0.59291909D-17
 -0.36575727D-06 -0.53573671D-06  0.90149399D-06  0.11429038D+00 -0.64297099D-15
  0.72944229D-15 -0.50126402D-01 -0.90420877D-01 -0.13330421D+00 -0.13243659D+00
 -0.91465426D-02 -0.98198917D-04  0.20437951D-01 -0.63499548D-02  0.19707079D-16
  0.50125467D-01  0.90419190D-01  0.13330172D+00  0.13243414D+00  0.91464325D-02
  0.98195594D-04  0.20437097D-01  0.63505972D-02 -0.41366467D-16
MO    7     MO 0.0        OCC NO =    0.0236521  ORB. ENERGY =    0.000000
  0.37031412D-01  0.68106485D-01  0.11147573D+00  0.15022768D+00  0.14860717D+00
  0.16540402D-01  0.74383119D-01  0.19882946D+00 -0.28398771D-03  0.29048613D-04
  0.29825536D-04  0.22540460D-04  0.25848516D+01  0.26539851D+01  0.20057324D+01
  0.13912133D-14  0.14284222D-14  0.10795210D-14 -0.13075018D+00  0.83573441D-05
  0.64394833D+00 -0.24384170D-15 -0.99926037D-01 -0.15789897D-06 -0.73484835D-01
  0.11438420D-16 -0.16644174D-02 -0.42612134D-07 -0.10398592D-01 -0.20457525D-16
  0.26774496D-01  0.49041481D-01 -0.75815977D-01  0.12690145D-05 -0.31498615D-14
  0.10563465D-14  0.40362103D-01  0.72807475D-01  0.10733741D+00  0.10789306D+00
  0.44920066D-02  0.12766111D-03 -0.38812829D-01 -0.31922732D-01 -0.44068093D-15
  0.40363257D-01  0.72809556D-01  0.10734048D+00  0.10789612D+00  0.44921928D-02
  0.12766482D-03  0.38813296D-01 -0.31922595D-01  0.82078531D-15
MO    8     MO 0.0        OCC NO =    0.0208706  ORB. ENERGY =    0.000000
  0.95989974D-16  0.17654038D-15  0.28895879D-15  0.38940862D-15  0.38520807D-15
  0.42874757D-16  0.74296236D-16  0.19859722D-15 -0.28365600D-18  0.17082040D-15
  0.17538910D-15  0.13254920D-15 -0.32854805D-15 -0.33733528D-15 -0.25493899D-15
  0.29440764D+01  0.30228177D+01  0.22844753D+01  0.28014469D-16  0.50215888D-16
 -0.88044703D-16  0.56701501D+00  0.21494200D-16 -0.31097743D-18  0.18920289D-16
 -0.17682907D+00  0.53564668D-17  0.49571365D-19  0.13910578D-18 -0.15987841D-01
 -0.11712382D-16  0.12283936D-16 -0.57155403D-18  0.54527520D-17 -0.52778521D-07
  0.13475999D+00 -0.12791654D-16 -0.23074320D-16 -0.34017629D-16 -0.30805173D-16
 -0.56760085D-17 -0.54288449D-18  0.18660972D-16 -0.21142351D-17 -0.74305980D-01
 -0.47565423D-17 -0.85801237D-17 -0.12649364D-16 -0.12955182D-16 -0.35150773D-17
 -0.47365205D-18 -0.13946703D-16  0.58216020D-18 -0.74305971D-01
MO    9     MO 0.0        OCC NO =    0.0121003  ORB. ENERGY =    0.000000
 -0.16792066D+00 -0.30883202D+00 -0.50549187D+00 -0.68121440D+00 -0.67386614D+00
 -0.75003224D-01 -0.26639284D+00 -0.71208019D+00  0.10170626D-02 -0.48529723D-06
 -0.49827682D-06 -0.37656954D-06  0.91928148D+00  0.94386826D+00  0.71332245D+00
 -0.62835026D-15 -0.64515590D-15 -0.48757248D-15  0.89023088D+00 -0.36064134D-06
  0.36495359D-01  0.15459273D-15 -0.22407402D+00 -0.77026490D-07 -0.11290428D+00
 -0.43382485D-17  0.38448944D-02  0.12441711D-08 -0.85881135D-02 -0.21412294D-17
 -0.26893994D+00  0.87106672D-01  0.18183327D+00  0.26510646D-06 -0.16509947D-13
 -0.15212521D-14 -0.43289542D-01 -0.78088158D-01 -0.11512253D+00 -0.68342572D-01
  0.10648188D-01 -0.22654644D-02  0.39014778D-01 -0.10177389D+00 -0.84892978D-15
 -0.43289617D-01 -0.78088293D-01 -0.11512273D+00 -0.68342746D-01  0.10648192D-01
 -0.22654662D-02 -0.39014934D-01 -0.10177394D+00  0.75307791D-15
MO   10     MO 0.0        OCC NO =    0.0054950  ORB. ENERGY =    0.000000
 -0.34486864D-06 -0.63426669D-06 -0.10381587D-05 -0.13990505D-05 -0.13839590D-05
 -0.15403858D-06 -0.47063211D-06 -0.12580211D-05  0.17968289D-08 -0.91982057D+00
 -0.94442176D+00 -0.71374075D+00 -0.40269022D-06 -0.41346043D-06 -0.31247009D-06
 -0.77887837D-15 -0.79970998D-15 -0.60437574D-15  0.23713564D-05 -0.34481495D-01
  0.13196966D-06  0.24794998D-15 -0.20097966D-05  0.22742513D+00  0.58389130D-06
 -0.28404309D-16  0.90211584D-07 -0.55409865D-02 -0.13360503D-07  0.41079306D-17
  0.79277573D-05 -0.32557183D-05 -0.46720390D-05  0.24999857D+01 -0.49059977D-14
 -0.28876892D-15 -0.59778496D-01 -0.10783188D+00 -0.15897261D+00 -0.12173043D+00
  0.39079416D-01 -0.79704356D-03  0.16809549D+00  0.79525013D-03  0.13702613D-14
  0.59779062D-01  0.10783290D+00  0.15897412D+00  0.12173217D+00 -0.39079623D-01
  0.79704398D-03  0.16809557D+00 -0.79348959D-03 -0.14713843D-14
MO   11     MO 0.0        OCC NO =    0.0054265  ORB. ENERGY =    0.000000
 -0.67785591D-01 -0.12466817D+00 -0.20405509D+00 -0.27499011D+00 -0.27202379D+00
 -0.30277024D-01 -0.93244670D-01 -0.24924725D+00  0.35599932D-03  0.48034744D-05
  0.49319464D-05  0.37272872D-05 -0.17271468D+00 -0.17733405D+00 -0.13401908D+00
  0.45613677D-16  0.46833644D-16  0.35394229D-16  0.46871550D+00  0.30888602D-06
  0.49808620D-02 -0.72897134D-16 -0.37761327D+00 -0.10437897D-05  0.12350780D+00
  0.52624632D-16  0.11706676D-01  0.22196526D-07 -0.18568711D-02 -0.14057008D-17
  0.14154869D+01 -0.52211887D+00 -0.89336801D+00 -0.13856685D-04  0.13836624D-12
 -0.43375325D-15  0.52126344D-01  0.94028487D-01  0.13862277D+00  0.16870581D+00
 -0.19873592D-01  0.41893106D-03 -0.14868884D-01  0.20753839D+00  0.95328872D-14
  0.52125776D-01  0.94027464D-01  0.13862127D+00  0.16870466D+00 -0.19873195D-01
  0.41891663D-03  0.14867152D-01  0.20753838D+00 -0.98484412D-14
MO   12     MO 0.0        OCC NO =    0.0045281  ORB. ENERGY =    0.000000
  0.34811737D-14  0.64024159D-14  0.10479383D-13  0.14122298D-13  0.13969961D-13
  0.15548965D-14  0.97118692D-15  0.25960269D-14 -0.37078998D-17  0.21597577D-14
  0.22175218D-14  0.16758780D-14  0.74988902D-14  0.76994529D-14  0.58188126D-14
  0.12822328D-06  0.13165269D-06  0.99495686D-07 -0.14508027D-13  0.52815078D-16
  0.27066694D-14  0.66667838D-07  0.13344362D-13 -0.34437083D-16 -0.48388970D-14
  0.60036917D-07 -0.21922570D-14 -0.31315757D-16  0.40008794D-15 -0.13957875D-08
 -0.63486218D-13  0.50303028D-13  0.13183190D-13 -0.91502778D-16  0.34575555D+01
  0.31490104D-06 -0.13109866D-14 -0.23648328D-14 -0.34863869D-14 -0.70523295D-14
  0.21675736D-14 -0.17353588D-15 -0.11093162D-14 -0.92103312D-14  0.30380491D+00
 -0.13809087D-14 -0.24909623D-14 -0.36723350D-14 -0.69165248D-14  0.20229702D-14
 -0.15834540D-15  0.10598497D-14 -0.87965421D-14 -0.30380527D+00
MO   13     MO 0.0        OCC NO =    0.0038924  ORB. ENERGY =    0.000000
  0.84799857D-02  0.15596003D-01  0.25527317D-01  0.34401297D-01  0.34030210D-01
  0.37876594D-02  0.10319210D-01  0.27583719D-01 -0.39397768D-04  0.94891740D-07
  0.97429680D-07  0.73631863D-07  0.27653223D+00  0.28392827D+00  0.21457698D+00
  0.58436848D-16  0.59999779D-16  0.45344453D-16 -0.84307984D-01 -0.63189623D-07
 -0.44167506D-01  0.10502389D-16  0.16440935D+00 -0.10745137D-07 -0.13754156D+00
 -0.72768234D-17 -0.17365198D-01  0.13998644D-09  0.31923834D-02 -0.28780708D-17
  0.36581666D+00 -0.20157896D+01  0.16499730D+01 -0.11810293D-05  0.29817022D-13
  0.18891263D-15 -0.10905779D-01 -0.19672469D-01 -0.29002405D-01 -0.12605163D+00
  0.22938040D-01 -0.91316712D-03  0.23728242D+00  0.13026930D+00  0.75053371D-14
 -0.10905766D-01 -0.19672446D-01 -0.29002371D-01 -0.12605163D+00  0.22938024D-01
 -0.91316673D-03 -0.23728229D+00  0.13026962D+00 -0.74135885D-14
MO   14     MO 0.0        OCC NO =    0.0037230  ORB. ENERGY =    0.000000
 -0.91974707D-16 -0.16915569D-15 -0.27687163D-15 -0.37311964D-15 -0.36909479D-15
 -0.41081304D-16 -0.16034047D-15 -0.42859738D-15  0.61216475D-18 -0.27816656D-15
 -0.28560631D-15 -0.21584515D-15 -0.54272324D-15 -0.55723873D-15 -0.42112963D-15
 -0.20498327D+00 -0.21046568D+00 -0.15905810D+00  0.13689437D-15 -0.67684277D-16
 -0.13481749D-15 -0.34257864D-02  0.20724158D-16 -0.10175742D-16 -0.24055085D-17
  0.57910269D-01  0.20375773D-17 -0.73465383D-19  0.44535827D-17  0.10227518D-02
  0.42546655D-17 -0.38627463D-18 -0.38683909D-17 -0.81995075D-16 -0.58955769D-06
  0.39981361D+01 -0.18214189D-16 -0.32855799D-16 -0.48438108D-16 -0.36058899D-16
  0.45346990D-18  0.91053103D-18  0.47420175D-18  0.35579316D-16 -0.21138848D+00
 -0.88563510D-17 -0.15975594D-16 -0.23552236D-16 -0.37734233D-16 -0.31953828D-17
  0.11689122D-18  0.29113299D-17 -0.21686885D-16 -0.21138825D+00
MO   15     MO 0.0        OCC NO =    0.0010183  ORB. ENERGY =    0.000000
 -0.42938557D-01 -0.78970636D-01 -0.12925802D+00 -0.17419157D+00 -0.17231256D+00
 -0.19178880D-01 -0.33044017D-01 -0.88328163D-01  0.12615893D-03  0.33926565D-05
  0.34833953D-05  0.26325539D-05 -0.23143049D+00 -0.23762024D+00 -0.17957999D+00
  0.16854001D-15  0.17304772D-15  0.13077972D-15  0.36379627D+00 -0.11948928D-06
 -0.88299888D-02 -0.38093873D-16 -0.37219337D+00 -0.28230700D-06  0.18188537D+00
  0.63532801D-16  0.39259521D-01  0.58704037D-08  0.18540808D-02  0.15337214D-17
 -0.19211953D+01  0.26472822D+00  0.16564671D+01  0.69514093D-05 -0.41784467D-14
 -0.84853192D-15  0.15697294D+00  0.28315679D+00  0.41744774D+00  0.15411383D+00
 -0.34197397D-01 -0.52481994D-03 -0.42289985D-01  0.46235897D-01 -0.12592539D-14
  0.15697268D+00  0.28315631D+00  0.41744704D+00  0.15411329D+00 -0.34197233D-01
 -0.52482818D-03  0.42289536D-01  0.46236096D-01  0.65669911D-15
MO   16     MO 0.0        OCC NO =    0.0008520  ORB. ENERGY =    0.000000
 -0.19031446D-07 -0.35001768D-07 -0.57290397D-07 -0.77206076D-07 -0.76373253D-07
 -0.85005611D-08  0.56213556D-08  0.15026140D-07 -0.21461804D-10 -0.18407708D+01
 -0.18900034D+01 -0.14283581D+01  0.23501179D-05  0.24129733D-05  0.18235892D-05
 -0.14055090D-14 -0.14431003D-14 -0.10906139D-14  0.35927330D-06  0.17387725D+00
 -0.15826079D-06  0.44937890D-15 -0.67884083D-06  0.19932719D+00  0.28944832D-06
 -0.44524554D-16  0.51999505D-07 -0.21172459D-02 -0.50791658D-08  0.47528706D-17
 -0.46194539D-05  0.16815609D-05  0.29378930D-05 -0.37186224D+01 -0.13118672D-12
 -0.21893978D-15 -0.97636639D-01 -0.17612257D+00 -0.25965109D+00 -0.15330942D+00
  0.27672133D-01  0.33234581D-03  0.14593223D+00  0.23925972D+00  0.28477952D-13
  0.97637232D-01  0.17612364D+00  0.25965266D+00  0.15331002D+00 -0.27672244D-01
 -0.33234391D-03  0.14593240D+00 -0.23925942D+00 -0.28612399D-13
MO   17     MO 0.0        OCC NO =    0.0007144  ORB. ENERGY =    0.000000
 -0.20251670D-07 -0.37245949D-07 -0.60963640D-07 -0.82156237D-07 -0.81270016D-07
 -0.90455848D-08 -0.16074379D-07 -0.42967548D-07  0.61370459D-10  0.38648361D+01
  0.39682036D+01  0.29989447D+01 -0.35525632D-05 -0.36475787D-05 -0.27566345D-05
  0.59070638D-17  0.60650520D-17  0.45836246D-17  0.93379991D-07 -0.63226839D+00
  0.55058919D-06 -0.11267276D-17  0.36660715D-07  0.51137351D-01 -0.83111799D-07
 -0.11506680D-18  0.83111837D-08  0.34214935D-02  0.40995263D-09  0.33318826D-19
 -0.10633976D-05  0.10710784D-05 -0.76807641D-08 -0.15346782D+01 -0.52266030D-13
  0.71238591D-18 -0.14978983D+00 -0.27019948D+00 -0.39834525D+00  0.11745829D+00
  0.33821343D-01 -0.30674610D-02  0.37182006D-01 -0.29171672D+00  0.11097928D-13
  0.14978990D+00  0.27019960D+00  0.39834544D+00 -0.11745858D+00 -0.33821257D-01
  0.30674503D-02  0.37181624D-01  0.29171653D+00 -0.11096932D-13
MO   18     MO 0.0        OCC NO =    0.0006149  ORB. ENERGY =    0.000000
  0.18539202D-13  0.34096455D-13  0.55808594D-13  0.75209158D-13  0.74397876D-13
  0.82806960D-14  0.14061251D-15  0.37586363D-15 -0.53684524D-18  0.57657890D-13
  0.59199988D-13  0.44740015D-13  0.10981189D-11  0.11274888D-11  0.85209250D-12
 -0.20815678D-05 -0.21372406D-05 -0.16152061D-05 -0.42239349D-13 -0.78554484D-13
 -0.21406856D-12  0.37765026D-06 -0.33543125D-13 -0.10578169D-12  0.45153088D-13
 -0.65980777D-07  0.35538889D-13  0.47048843D-13 -0.70725302D-14  0.96738599D-08
  0.16088286D-13 -0.13832289D-12  0.12223461D-12  0.15936450D-12  0.32352649D+01
 -0.11649343D-05 -0.29394723D-13 -0.53023886D-13 -0.78171184D-13  0.21730347D-12
 -0.17239364D-12  0.10861217D-13 -0.15832224D-12  0.12344864D-12 -0.69546601D+00
  0.46536799D-13  0.83945746D-13  0.12375816D-12 -0.16390927D-12  0.11746442D-12
 -0.10315165D-13  0.73133048D-13 -0.95487924D-13  0.69546568D+00
MO   19     MO 0.0        OCC NO =    0.0005683  ORB. ENERGY =    0.000000
  0.61040295D-01  0.11226253D+00  0.18374971D+00  0.24762604D+00  0.24495490D+00
  0.27264179D-01  0.39319306D-01  0.10510230D+00 -0.15011739D-03  0.27699424D-05
  0.28440263D-05  0.21493549D-05  0.45984863D+01  0.47214758D+01  0.35682254D+01
 -0.17724872D-16 -0.18198936D-16 -0.13753730D-16 -0.27175406D+00 -0.62645591D-06
 -0.97830864D+00  0.40119944D-17  0.14074894D+00  0.26940308D-07  0.11862556D+00
  0.16150661D-17 -0.20058884D-01 -0.73174912D-08 -0.81129530D-02  0.10781828D-18
  0.41382354D+00 -0.70673427D+00  0.29291074D+00 -0.35539363D-06 -0.67703072D-12
 -0.26310284D-16  0.87759927D-01  0.15830639D+00  0.23338534D+00 -0.12482098D+00
 -0.81924310D-02  0.31393798D-02 -0.38627462D+00 -0.85083735D-01  0.14527975D-12
  0.87760121D-01  0.15830674D+00  0.23338586D+00 -0.12482144D+00 -0.81923732D-02
  0.31393644D-02  0.38627403D+00 -0.85083442D-01 -0.14530141D-12
MO   20     MO 0.0        OCC NO =    0.0004774  ORB. ENERGY =    0.000000
  0.60387012D-16  0.11106104D-15  0.18178313D-15  0.24497583D-15  0.24233327D-15
  0.26972384D-16  0.53119449D-16  0.14199071D-15 -0.20280503D-18  0.29390532D-16
  0.30176601D-16  0.22805775D-16 -0.41372349D-16 -0.42478879D-16 -0.32103143D-16
  0.24908195D+01  0.25574381D+01  0.19327676D+01 -0.28764474D-15  0.66018021D-16
  0.12333410D-15 -0.78690819D+00  0.20003079D-15  0.26962948D-16 -0.94759880D-16
  0.25103937D+00 -0.31250290D-16 -0.50471765D-18  0.28424136D-17 -0.48784684D-02
  0.34887979D-15  0.29862458D-15 -0.64750437D-15  0.13962193D-15 -0.24765662D-05
 -0.21127164D+01 -0.80784942D-16 -0.14572451D-15 -0.21483634D-15 -0.73526229D-16
  0.19562982D-16  0.28589914D-17 -0.12145486D-16 -0.83030983D-16 -0.73606922D+00
 -0.76780340D-16 -0.13850078D-15 -0.20418665D-15 -0.58897591D-16  0.14016721D-16
  0.35505410D-17  0.16206746D-16 -0.59213661D-16 -0.73606955D+00
MO   21     MO 0.0        OCC NO =    0.0004313  ORB. ENERGY =    0.000000
  0.24696312D-07  0.45420332D-07  0.74343354D-07  0.10018710D-06  0.99106379D-07
  0.11030823D-07  0.20288104D-07  0.54231027D-07 -0.77458062D-10  0.31963770D+01
  0.32818662D+01  0.24802495D+01  0.41231855D-05  0.42334627D-05  0.31994126D-05
  0.25915670D-16  0.26608801D-16  0.20109433D-16 -0.25609966D-06 -0.68057396D+00
 -0.10791358D-05 -0.81833146D-17  0.30967212D-06 -0.19174328D+00  0.76956091D-07
  0.17259167D-17 -0.65087780D-07  0.95322605D-02 -0.11583336D-07 -0.89363387D-19
  0.48489824D-06  0.27527360D-06 -0.76017184D-06  0.19449037D+00 -0.16547750D-12
 -0.92776012D-17  0.51933840D-01  0.93681238D-01  0.13811084D+00  0.13031596D+00
 -0.25907190D-01 -0.32240438D-02  0.43021769D+00  0.54351903D+00  0.35558625D-13
 -0.51933996D-01 -0.93681519D-01 -0.13811125D+00 -0.13031623D+00  0.25907243D-01
  0.32240506D-02  0.43021703D+00 -0.54351857D+00 -0.35565052D-13
MO   22     MO 0.0        OCC NO =    0.0004093  ORB. ENERGY =    0.000000
  0.36902937D-16  0.67870200D-16  0.11108898D-15  0.14970649D-15  0.14809160D-15
  0.16483018D-16 -0.11693784D-15 -0.31258018D-15  0.44645761D-18 -0.13066631D-14
 -0.13416107D-14 -0.10139137D-14 -0.71297523D-16 -0.73204421D-16 -0.55323777D-16
  0.62123777D+01  0.63785317D+01  0.48205349D+01  0.90142375D-16 -0.36339335D-16
 -0.37667769D-16 -0.18835084D+01 -0.87036827D-16  0.70380952D-16  0.38214202D-16
  0.16905091D+00  0.19194171D-16 -0.33225838D-17 -0.30330997D-17 -0.15920085D-01
 -0.20647446D-15  0.10151230D-15  0.10496216D-15 -0.13863217D-14  0.21653632D-05
  0.95748523D+00 -0.61657186D-16 -0.11122077D-15 -0.16396873D-15 -0.48451252D-16
  0.70343578D-17 -0.26603961D-17 -0.16018322D-16  0.93402441D-16  0.33221657D+00
  0.28872020D-16  0.52081004D-16  0.76781128D-16  0.13221799D-15 -0.15670389D-16
 -0.41795422D-17  0.11770064D-15 -0.13082696D-15  0.33221729D+00
MO   23     MO 0.0        OCC NO =    0.0003918  ORB. ENERGY =    0.000000
  0.39457244D-01  0.72567965D-01  0.11877822D+00  0.16006871D+00  0.15834205D+00
  0.17623922D-01  0.15162580D-01  0.40530266D-01 -0.57889295D-04 -0.52465674D-06
 -0.53868903D-06 -0.40711081D-06  0.29373199D+01  0.30158804D+01  0.22792325D+01
  0.19037104D-15  0.19546264D-15  0.14771965D-15 -0.22114099D+00  0.12709800D-06
 -0.70645045D+00 -0.58078223D-16  0.19917602D+00  0.16785251D-06 -0.12063678D+00
  0.45910499D-17 -0.70967360D-01 -0.15581137D-07  0.41160097D-02 -0.53818123D-18
 -0.12409939D+01  0.15827836D+01 -0.34178973D+00  0.33626402D-05 -0.77690982D-13
  0.35977822D-16 -0.32057343D-01 -0.57826873D-01 -0.85252054D-01 -0.10098898D+00
  0.35413624D-01  0.26865063D-02  0.33729876D+00  0.61933073D+00  0.15054461D-13
 -0.32057316D-01 -0.57826825D-01 -0.85251982D-01 -0.10098875D+00  0.35413564D-01
  0.26864989D-02 -0.33729916D+00  0.61933238D+00 -0.15025127D-13
MO   24     MO 0.0        OCC NO =    0.0002504  ORB. ENERGY =    0.000000
 -0.19740496D+00 -0.36305820D+00 -0.59424850D+00 -0.80082522D+00 -0.79218671D+00
 -0.88172642D-01  0.58236783D-01  0.15566957D+00 -0.22234253D-03 -0.20148756D-06
 -0.20687648D-06 -0.15634559D-06  0.41938597D+01  0.43060272D+01  0.32542527D+01
 -0.18946278D-16 -0.19453008D-16 -0.14701488D-16  0.46298619D+00 -0.45355289D-06
 -0.17483842D+01  0.70118573D-17 -0.23113305D+00  0.14206182D-06  0.24663736D+00
 -0.46657292D-18  0.69608300D-01 -0.12990629D-07  0.11293299D-03 -0.42131827D-19
  0.54696279D+00 -0.22000491D+00 -0.32695788D+00 -0.65237480D-06 -0.75373310D-13
 -0.55825040D-17 -0.11317267D+00 -0.20414735D+00 -0.30096700D+00  0.18408535D+00
 -0.12427851D-01 -0.41314468D-02  0.35419941D+00 -0.37754647D+00  0.18519738D-13
 -0.11317274D+00 -0.20414748D+00 -0.30096720D+00  0.18408550D+00 -0.12427928D-01
 -0.41314458D-02 -0.35419992D+00 -0.37754598D+00 -0.18519786D-13
MO   25     MO 0.0        OCC NO =    0.0001692  ORB. ENERGY =    0.000000
 -0.13791535D-06 -0.25364763D-06 -0.41516684D-06 -0.55948998D-06 -0.55345475D-06
 -0.61601093D-07  0.72428820D-07  0.19360553D-06 -0.27652638D-09 -0.39906604D+01
 -0.40973931D+01 -0.30965789D+01  0.11204007D-05  0.11503665D-05  0.86938220D-06
  0.24416253D-17  0.25069281D-17  0.18945950D-17  0.20414352D-06  0.15529000D+01
 -0.84379158D-06 -0.11166374D-17  0.10885363D-05 -0.53218379D+00 -0.49907313D-06
  0.21033795D-18  0.63651369D-07  0.16350568D-01  0.68666050D-08 -0.77106370D-19
  0.87667024D-06  0.55096371D-06 -0.14276340D-05  0.18840714D+00 -0.19825238D-12
 -0.40715011D-19 -0.17744332D+00 -0.32008244D+00 -0.47188588D+00  0.53852526D+00
 -0.49825984D-01  0.16508055D-03  0.12113132D+00  0.16583410D+00  0.42680299D-13
  0.17744381D+00  0.32008332D+00  0.47188718D+00 -0.53852806D+00  0.49826268D-01
 -0.16512323D-03  0.12112884D+00 -0.16583477D+00 -0.42680318D-13
MO   26     MO 0.0        OCC NO =    0.0001488  ORB. ENERGY =    0.000000
 -0.19582710D+00 -0.36015627D+00 -0.58949867D+00 -0.79442422D+00 -0.78585476D+00
 -0.87467877D-01  0.94553827D-01  0.25274669D+00 -0.36099756D-03  0.51300946D-05
  0.52673023D-05  0.39807303D-05  0.40587489D+00  0.41673028D+00  0.31494126D+00
 -0.19405686D-16 -0.19924704D-16 -0.15057968D-16  0.27663539D+00 -0.33238574D-05
 -0.62339215D+00  0.10021098D-16  0.63167437D+00  0.24906992D-06 -0.43051443D+00
 -0.81178514D-19  0.13612980D+00  0.67969750D-09 -0.54761341D-02  0.35737785D-18
  0.89579058D+00  0.44427666D+00 -0.13400672D+01  0.31126584D-06  0.80909872D-13
 -0.11658866D-16  0.15954942D+00  0.28780439D+00  0.42429953D+00 -0.93800095D+00
  0.53770408D-01 -0.16844499D-01  0.97037260D+00 -0.36048554D+00 -0.17647699D-13
  0.15954889D+00  0.28780343D+00  0.42429811D+00 -0.93800080D+00  0.53770554D-01
 -0.16844542D-01 -0.97037436D+00 -0.36048533D+00  0.17650779D-13
MO   27     MO 0.0        OCC NO =    0.0000771  ORB. ENERGY =    0.000000
 -0.45858175D-06 -0.84340265D-06 -0.13804695D-05 -0.18603577D-05 -0.18402900D-05
 -0.20482953D-06  0.31142749D-06  0.83245987D-06 -0.11890007D-08  0.27557938D+01
  0.28294992D+01  0.21383761D+01 -0.21160058D-05 -0.21725997D-05 -0.16419284D-05
  0.35735155D-17  0.36690914D-17  0.27728926D-17  0.13651099D-05 -0.21800126D+01
  0.95466771D-06 -0.20685585D-17 -0.11434676D-05 -0.27795526D+00  0.44918215D-06
 -0.86648600D-20  0.57357014D-06  0.28910403D-01 -0.94935725D-07 -0.21037134D-19
  0.34333118D-06 -0.16022055D-05  0.12588743D-05  0.35584063D+01 -0.27805568D-12
  0.26806624D-17 -0.67780692D-01 -0.12226670D+00 -0.18025334D+00  0.68093237D+00
 -0.15013160D+00  0.20577585D-01 -0.11274359D+01  0.90339602D+00  0.59857653D-13
  0.67780344D-01  0.12226607D+00  0.18025242D+00 -0.68093159D+00  0.15013121D+00
 -0.20577631D-01 -0.11274351D+01 -0.90339450D+00 -0.59858367D-13
MO   28     MO 0.0        OCC NO =    0.0000495  ORB. ENERGY =    0.000000
 -0.25257254D+00 -0.46451991D+00 -0.76031959D+00 -0.10246271D+01 -0.10135744D+01
 -0.11281372D+00  0.24987186D+00  0.66791885D+00 -0.95398709D-03 -0.48622548D-05
 -0.49922989D-05 -0.37728982D-05 -0.88002951D+00 -0.90356647D+00 -0.68286463D+00
 -0.19741065D-17 -0.20269052D-17 -0.15318208D-17  0.39089798D+00  0.46618569D-05
  0.76473353D+00 -0.70132058D-18 -0.12231049D+01  0.18093931D-06  0.31777422D+00
 -0.19058601D-17  0.67363423D+00 -0.14689958D-07 -0.10094829D+00  0.54860224D-18
 -0.10283913D+01 -0.84983961D-01  0.11133753D+01 -0.36478920D-05 -0.89480974D-13
  0.80830541D-17  0.29063360D-01  0.52426154D-01  0.77289970D-01  0.48615887D+00
 -0.27770857D+00 -0.22915038D-01 -0.91915752D+00  0.54997690D+00  0.21071212D-13
  0.29063112D-01  0.52425707D-01  0.77289311D-01  0.48616157D+00 -0.27770943D+00
 -0.22914885D-01  0.91916102D+00  0.54997854D+00 -0.21076328D-13
MO   29     MO 0.0        OCC NO =    0.0000298  ORB. ENERGY =    0.000000
 -0.31239776D-06 -0.57454772D-06 -0.94041155D-06 -0.12673238D-05 -0.12536532D-05
 -0.13953518D-06  0.35389516D-06  0.94597788D-06 -0.13511382D-08  0.69655728D+00
  0.71518715D+00  0.54049815D+00 -0.19811856D-05 -0.20341737D-05 -0.15373138D-05
  0.52029295D-18  0.53420853D-18  0.40372470D-18  0.21386714D-06 -0.48509463D+00
  0.16720203D-05 -0.13335178D-18 -0.12639869D-05  0.44786937D+00 -0.60586642D-07
  0.11459679D-18  0.55562676D-06 -0.10972913D+00  0.86184037D-08 -0.34368449D-19
 -0.16325313D-05  0.46972533D-06  0.11628060D-05 -0.11968938D+01 -0.74550526D-13
 -0.93055265D-19 -0.11438567D+00 -0.20633542D+00 -0.30419280D+00  0.11423271D+00
 -0.10634354D+00  0.89145549D-01  0.26002300D+00 -0.23809315D+00  0.15988299D-13
  0.11438565D+00  0.20633540D+00  0.30419276D+00 -0.11423150D+00  0.10634314D+00
 -0.89145594D-01  0.26002491D+00  0.23809410D+00 -0.15987628D-13
MO   30     MO 0.0        OCC NO =    0.0000059  ORB. ENERGY =    0.000000
 -0.10416173D+00 -0.19156951D+00 -0.31355826D+00 -0.42255953D+00 -0.41800137D+00
 -0.46524746D-01  0.11828992D+00  0.31619434D+00 -0.45161971D-03  0.74774833D-07
  0.76774734D-07  0.58022018D-07  0.22771659D+00  0.23380702D+00  0.17669817D+00
 -0.13859597D-16 -0.14230280D-16 -0.10754444D-16  0.38162090D-01 -0.36348334D-07
 -0.11102619D+00  0.83169727D-17 -0.31142546D+00  0.16576985D-06  0.23696271D+00
 -0.37183850D-17  0.95219497D+00 -0.16997888D-06 -0.19737194D+00  0.13696672D-17
 -0.11977506D+00 -0.42835313D-02  0.12405859D+00  0.22635800D-06 -0.56526421D-13
  0.16717838D-17 -0.98082717D-01 -0.17692723D+00 -0.26083737D+00  0.61596077D+00