 gdb_2                                                   
GAUSSIAN             43 MOL ORBITALS     63 PRIMITIVES        4 NUCLEI
  N    1    (CENTRE  1)  -0.00000035 -0.00002374 -0.11606497  CHARGE =  7.0
  H    2    (CENTRE  2)   1.60280881 -0.94251412  0.27082967  CHARGE =  1.0
  H    3    (CENTRE  3)  -1.61772126 -0.91668312  0.27082993  CHARGE =  1.0
  H    4    (CENTRE  4)   0.01491487  1.85936346  0.27079521  CHARGE =  1.0
CENTRE ASSIGNMENTS    1  1  1  1  1  1  1  1  1  1  1  1  1  1  1  1  1  1  1  1
CENTRE ASSIGNMENTS    1  1  1  1  1  1  1  1  1  1  1  1  1  1  1  1  2  2  2  2
CENTRE ASSIGNMENTS    2  2  2  2  2  3  3  3  3  3  3  3  3  3  4  4  4  4  4  4
CENTRE ASSIGNMENTS    4  4  4
TYPE ASSIGNMENTS      1  1  1  1  1  1  1  1  1  2  2  2  3  3  3  4  4  4  1  2
TYPE ASSIGNMENTS      3  4  1  2  3  4  1  2  3  4  5  6  7  8  9 10  1  1  1  1
TYPE ASSIGNMENTS      1  1  2  3  4  1  1  1  1  1  1  2  3  4  1  1  1  1  1  1
TYPE ASSIGNMENTS      2  3  4
EXPONENTS  0.6293480D+04 0.9490440D+03 0.2187760D+03 0.6369160D+02 0.1882820D+02
EXPONENTS  0.2720230D+01 0.3063310D+02 0.7026140D+01 0.2112050D+01 0.3063310D+02
EXPONENTS  0.7026140D+01 0.2112050D+01 0.3063310D+02 0.7026140D+01 0.2112050D+01
EXPONENTS  0.3063310D+02 0.7026140D+01 0.2112050D+01 0.6840090D+00 0.6840090D+00
EXPONENTS  0.6840090D+00 0.6840090D+00 0.2008780D+00 0.2008780D+00 0.2008780D+00
EXPONENTS  0.2008780D+00 0.6390000D-01 0.6390000D-01 0.6390000D-01 0.6390000D-01
EXPONENTS  0.9130000D+00 0.9130000D+00 0.9130000D+00 0.9130000D+00 0.9130000D+00
EXPONENTS  0.9130000D+00 0.3386500D+02 0.5094790D+01 0.1158790D+01 0.3258400D+00
EXPONENTS  0.1027410D+00 0.3600000D-01 0.7500000D+00 0.7500000D+00 0.7500000D+00
EXPONENTS  0.3386500D+02 0.5094790D+01 0.1158790D+01 0.3258400D+00 0.1027410D+00
EXPONENTS  0.3600000D-01 0.7500000D+00 0.7500000D+00 0.7500000D+00 0.3386500D+02
EXPONENTS  0.5094790D+01 0.1158790D+01 0.3258400D+00 0.1027410D+00 0.3600000D-01
EXPONENTS  0.7500000D+00 0.7500000D+00 0.7500000D+00
MO    1     MO 0.0        OCC NO =    2.0000017  ORB. ENERGY =    0.000000
  0.55205455D+00  0.10146775D+01  0.16583820D+01  0.22261016D+01  0.21598756D+01
  0.21524380D+00  0.48469741D+00  0.13230775D+01 -0.14972643D-02  0.81677875D-08
  0.80336749D-08  0.61581311D-08  0.51788258D-06  0.50937911D-06  0.39045933D-06
  0.68955773D-02  0.67823540D-02  0.51989439D-02  0.52450295D-02  0.12680114D-08
  0.45086372D-07  0.64347141D-03  0.39982611D-03  0.26861382D-09  0.16829996D-07
  0.21012907D-03  0.87162395D-04  0.22927549D-10  0.20195951D-08  0.11750123D-04
  0.87180867D-04  0.86992333D-04 -0.17417320D-03 -0.22828898D-08  0.12645223D-09
 -0.21130244D-07  0.26407040D-03  0.47634533D-03  0.70225858D-03  0.21903927D-03
 -0.17752968D-05 -0.68196543D-05 -0.70992535D-04  0.41740345D-04  0.77175573D-04
  0.26407021D-03  0.47634499D-03  0.70225808D-03  0.21903909D-03 -0.17752951D-05
 -0.68196546D-05  0.71652821D-04  0.40596271D-04  0.77175630D-04  0.26408118D-03
  0.47636477D-03  0.70228723D-03  0.21910547D-03 -0.17817320D-05 -0.68190673D-05
 -0.66126708D-06 -0.82423962D-04  0.77151165D-04
MO    2     MO 0.0        OCC NO =    1.9824012  ORB. ENERGY =    0.000000
 -0.11438388D+00 -0.21023782D+00 -0.34361127D+00 -0.46124092D+00 -0.44751911D+00
 -0.44597806D-01 -0.19364461D+00 -0.52859127D+00  0.59818179D-03 -0.28207500D-07
 -0.27744342D-07 -0.21267140D-07 -0.14642441D-04 -0.14402017D-04 -0.11039718D-04
 -0.61682583D-02 -0.60669774D-02 -0.46505793D-02  0.26311751D+00 -0.93540421D-08
 -0.44658022D-05 -0.10363291D-02  0.72698400D-01 -0.47147936D-08 -0.60323114D-06
 -0.49399588D-02  0.27812569D-02  0.72888650D-09  0.22401644D-07 -0.41910782D-03
  0.76827579D-02  0.76777577D-02 -0.15360516D-01 -0.53645850D-07 -0.81847628D-08
 -0.13950648D-05  0.22052434D-01  0.39779444D-01  0.58645386D-01  0.29087382D-01
 -0.17210620D-02  0.14317046D-03 -0.17439105D-01  0.10254337D-01 -0.50444467D-02
  0.22052430D-01  0.39779438D-01  0.58645376D-01  0.29087379D-01 -0.17210598D-02
  0.14317125D-03  0.17601342D-01  0.99732845D-02 -0.50444479D-02  0.22050051D-01
  0.39775147D-01  0.58639050D-01  0.29084915D-01 -0.17212249D-02  0.14311096D-03
 -0.16227249D-03 -0.20229601D-01 -0.50438555D-02
MO    3     MO 0.0        OCC NO =    1.9679516  ORB. ENERGY =    0.000000
  0.14779451D-07  0.27164663D-07  0.44397741D-07  0.59596576D-07  0.57823590D-07
  0.57624473D-08  0.28154412D-07  0.76853037D-07 -0.86970955D-10  0.84458696D+00
  0.83071910D+00  0.63677920D+00 -0.54778948D-02 -0.53879494D-02 -0.41300773D-02
  0.15655563D-06  0.15398504D-06  0.11803565D-06 -0.46088459D-07  0.28798438D+00
 -0.18678355D-02  0.52207952D-07 -0.29917116D-07  0.38483140D-01 -0.24960075D-03
  0.12672996D-07 -0.10875948D-08  0.96133692D-03 -0.62348352D-05  0.12932558D-08
 -0.40090403D-03  0.40090948D-03 -0.54494088D-08 -0.45614854D-01  0.37227057D-01
 -0.24144744D-03  0.37531139D-01  0.67700820D-01  0.99808854D-01  0.64195652D-01
  0.66330127D-02  0.17614864D-03 -0.11182685D-01  0.15506031D-01 -0.49649421D-02
 -0.37597711D-01 -0.67820907D-01 -0.99985893D-01 -0.64309517D-01 -0.66447753D-02
 -0.17646084D-03 -0.11477101D-01 -0.15304440D-01  0.49737644D-02  0.66592360D-04
  0.12012312D-03  0.17709314D-03  0.11390627D-03  0.11765740D-04  0.31210128D-06
  0.15354739D-01 -0.15422963D-03 -0.88039933D-05
MO    4     MO 0.0        OCC NO =    1.9679505  ORB. ENERGY =    0.000000
 -0.15561991D-05 -0.28602974D-05 -0.46748506D-05 -0.62752086D-05 -0.60885225D-05
 -0.60675565D-06 -0.26619394D-05 -0.72662904D-05  0.82229179D-08  0.54778101D-02
  0.53878661D-02  0.41300135D-02  0.84458307D+00  0.83071528D+00  0.63677627D+00
 -0.10589308D-03 -0.10415434D-03 -0.79838444D-04  0.39613648D-05  0.18678170D-02
  0.28798515D+00 -0.36248191D-04  0.22273256D-05  0.24960526D-03  0.38485329D-01
 -0.77481824D-05 -0.88577932D-06  0.62352373D-05  0.96132104D-03 -0.62610062D-06
 -0.22809394D-01  0.22811278D-01 -0.18842357D-05  0.80197700D-03  0.24143224D-03
  0.37224189D-01 -0.21744956D-01 -0.39224798D-01 -0.57827691D-01 -0.37194353D-01
 -0.38433765D-02 -0.10206712D-03  0.15474435D-01  0.63148999D-02  0.28738392D-02
 -0.21629630D-01 -0.39016767D-01 -0.57520999D-01 -0.36997087D-01 -0.38229847D-02
 -0.10152484D-03 -0.15335994D-01  0.66093145D-02  0.28585878D-02  0.43374504D-01
  0.78241418D-01  0.11534847D+00  0.74194218D-01  0.76678976D-02  0.20376391D-03
 -0.18580464D-03 -0.20223991D-01 -0.57395406D-02
MO    5     MO 0.0        OCC NO =    1.9664797  ORB. ENERGY =    0.000000
  0.79700597D-02  0.14648987D-01  0.23942205D-01  0.32138424D-01  0.31182313D-01
  0.31074936D-02  0.16012934D-01  0.43710472D-01 -0.49465078D-04  0.46608715D-06
  0.45843414D-06  0.35140799D-06  0.87937134D-04  0.86493233D-04  0.66300501D-04
  0.10247289D+01  0.10079032D+01  0.77259784D+00 -0.30128792D-01  0.15836747D-06
  0.30039362D-04  0.35224567D+00 -0.19736916D-01  0.29581777D-07  0.45728516D-05
  0.78875504D-01  0.88225086D-02  0.47496168D-08  0.35347699D-06  0.67496786D-02
 -0.58884862D-02 -0.58859065D-02  0.11774393D-01  0.68779399D-07  0.44132309D-07
  0.47076314D-05  0.82912892D-02  0.14956303D-01  0.22049533D-01  0.11737359D-01
 -0.31230105D-02 -0.49023978D-03 -0.59664578D-02  0.35105013D-02  0.25843577D-01
  0.82913211D-02  0.14956360D-01  0.22049617D-01  0.11737418D-01 -0.31229972D-02
 -0.49023756D-03  0.60220146D-02  0.34143542D-02  0.25843570D-01  0.82964707D-02
  0.14965650D-01  0.22063312D-01  0.11746919D-01 -0.31222500D-02 -0.49029247D-03
 -0.55545306D-04 -0.69243877D-02  0.25842181D-01
MO    6     MO 0.0        OCC NO =    0.0211416  ORB. ENERGY =    0.000000
 -0.56057542D-02 -0.10303388D-01 -0.16839788D-01 -0.22604612D-01 -0.21932129D-01
 -0.21856606D-02 -0.14359291D-01 -0.39196525D-01  0.44356858D-04  0.10993161D-05
  0.10812656D-05  0.82883308D-06  0.17989365D-03  0.17693985D-03  0.13563143D-03
  0.19740179D+01  0.19416052D+01  0.14883175D+01  0.79123365D-02  0.34409959D-06
  0.58425389D-04  0.46617961D+00  0.29372503D-01 -0.34740175D-07 -0.25592363D-05
 -0.12287939D+00 -0.14264175D-01 -0.91505039D-08 -0.71930139D-06 -0.13344335D-01
  0.47485158D-02  0.47504357D-02 -0.94989515D-02 -0.71789953D-09 -0.18181577D-06
 -0.16324724D-04 -0.98837083D-02 -0.17828800D-01 -0.26284350D-01 -0.14578771D-01
  0.30694205D-02  0.99286696D-03 -0.92630059D-02  0.54448700D-02 -0.41488476D-01
 -0.98837411D-02 -0.17828859D-01 -0.26284437D-01 -0.14578866D-01  0.30693949D-02
  0.99286401D-03  0.93491426D-02  0.52956018D-02 -0.41488459D-01 -0.98900449D-02
 -0.17840230D-01 -0.26301201D-01 -0.14597333D-01  0.30674203D-02  0.99317622D-03
 -0.86194876D-04 -0.10743175D-01 -0.41494903D-01
MO    7     MO 0.0        OCC NO =    0.0194271  ORB. ENERGY =    0.000000
 -0.10446270D-04 -0.19200268D-04 -0.31380787D-04 -0.42123482D-04 -0.40870318D-04
 -0.40729580D-05 -0.17348952D-04 -0.47357398D-04  0.53592132D-07  0.10103718D-01
  0.99378184D-02  0.76177327D-02  0.17472605D+01  0.17185710D+01  0.13173530D+01
 -0.22208992D-03 -0.21844327D-03 -0.16744545D-03  0.46967068D-04  0.32202040D-02
  0.55687371D+00 -0.48383981D-04  0.59249298D-06 -0.85064464D-04 -0.14711263D-01
  0.15911014D-04  0.23205830D-05 -0.13093780D-04 -0.22643911D-02  0.15443739D-05
  0.12273469D-01 -0.12289539D-01  0.16070444D-04 -0.44907329D-03 -0.31815012D-03
 -0.55017554D-01  0.26015606D-01  0.46928441D-01  0.69184892D-01  0.73619865D-01
  0.88698732D-02 -0.32990304D-03 -0.94604227D-03  0.39578191D-02  0.86985562D-02
  0.25814633D-01  0.46565915D-01  0.68650432D-01  0.73051153D-01  0.88013533D-02
 -0.32735629D-03  0.98666285D-03  0.39380034D-02  0.86314293D-02 -0.51841176D-01
 -0.93514086D-01 -0.13786441D+00 -0.14670371D+00 -0.17675060D-01  0.65672872D-03
  0.37616847D-04  0.56339830D-02 -0.17313054D-01
MO    8     MO 0.0        OCC NO =    0.0194257  ORB. ENERGY =    0.000000
  0.23934175D-07  0.43991066D-07  0.71898699D-07  0.96512032D-07  0.93640820D-07
  0.93318366D-08  0.34599250D-07  0.94445500D-07 -0.10687952D-09  0.17473115D+01
  0.17186211D+01  0.13173914D+01 -0.10104070D-01 -0.99381643D-02 -0.76179979D-02
  0.17144291D-07  0.16862787D-07  0.12925996D-07 -0.12347440D-06  0.55688852D+00
 -0.32202620D-02 -0.17427116D-07  0.50680229D-07 -0.14713406D-01  0.85087271D-04
 -0.10999351D-07  0.10756299D-07 -0.22643948D-02  0.13094476D-04 -0.49897789D-09
  0.22432645D-03 -0.22430815D-03 -0.18300781D-07  0.24540358D-01 -0.55023644D-01
  0.31817651D-03 -0.44833639D-01 -0.80873488D-01 -0.11922884D+00 -0.12688000D+00
 -0.15284182D-01  0.56807786D-03  0.50630654D-02 -0.10037124D-02 -0.14982236D-01
  0.44949666D-01  0.81082784D-01  0.11953740D+00  0.12720832D+00  0.15323719D-01
 -0.56954822D-03  0.50830308D-02  0.94001427D-03  0.15020981D-01 -0.11601693D-03
 -0.20927799D-03 -0.30853092D-03 -0.32836090D-03 -0.39561038D-04  0.14699666D-05
  0.33848115D-02 -0.14546366D-04 -0.38798979D-04
MO    9     MO 0.0        OCC NO =    0.0151468  ORB. ENERGY =    0.000000
 -0.13892953D+00 -0.25535277D+00 -0.41734684D+00 -0.56021864D+00 -0.54355226D+00
 -0.54168053D-01 -0.22871985D+00 -0.62433609D+00  0.70653169D-03 -0.41424880D-06
 -0.40744696D-06 -0.31232429D-06 -0.14997699D-03 -0.14751442D-03 -0.11307566D-03
 -0.13851384D+00 -0.13623949D+00 -0.10443298D+00  0.67426488D+00 -0.90265542D-07
 -0.48026214D-04  0.30031760D-01 -0.19817643D-01  0.30868074D-07  0.26328810D-05
  0.43073454D-01 -0.17352622D-02  0.23113609D-08  0.43635844D-06  0.25659079D-02
 -0.89188826D-01 -0.89165206D-01  0.17835403D+00  0.12965723D-06  0.15810220D-06
  0.14984224D-04 -0.49056724D-01 -0.88491330D-01 -0.13045955D+00 -0.12501616D+00
  0.39360980D-02 -0.90216750D-03  0.45564962D-01 -0.26797156D-01  0.31905255D-01
 -0.49056725D-01 -0.88491333D-01 -0.13045955D+00 -0.12501607D+00  0.39361137D-02
 -0.90216944D-03 -0.45988956D-01 -0.26062786D-01  0.31905275D-01 -0.49044990D-01
 -0.88470165D-01 -0.13042834D+00 -0.12498844D+00  0.39366792D-02 -0.90223797D-03
  0.42391764D-03  0.52852647D-01  0.31905077D-01
MO   10     MO 0.0        OCC NO =    0.0069500  ORB. ENERGY =    0.000000
 -0.14590174D-04 -0.26816771D-04 -0.43829149D-04 -0.58833335D-04 -0.57083056D-04
 -0.56886489D-05 -0.20599090D-04 -0.56229292D-04  0.63632036D-07 -0.56191682D-03
 -0.55269032D-03 -0.42365909D-03 -0.55852851D+00 -0.54935765D+00 -0.42110447D+00
  0.64386418D-05  0.63329213D-05  0.48544358D-05  0.93289994D-04 -0.59152690D-04
 -0.58717133D-01  0.70217410D-06 -0.59017563D-04  0.14778374D-03  0.14698094D+00
 -0.65476580D-05 -0.57577164D-05 -0.16897063D-06 -0.16829989D-03  0.62075944D-07
  0.59496237D+00 -0.59487607D+00 -0.86307586D-04 -0.27438609D-01 -0.43323497D-03
 -0.43125234D+00  0.30281148D-01  0.54622870D-01  0.80528509D-01  0.54380029D-01
 -0.92325655D-02 -0.82263956D-03  0.25560350D-01  0.13093676D+00  0.10089839D-01
  0.29554220D-01  0.53311596D-01  0.78595345D-01  0.53074539D-01 -0.90108602D-02
 -0.80288174D-03 -0.24887456D-01  0.13169567D+00  0.98472659D-02 -0.59822082D-01
 -0.10791050D+00 -0.15908852D+00 -0.10742687D+00  0.18255362D-01  0.16256107D-02
 -0.32057599D-03  0.87612672D-01 -0.19963775D-01
MO   11     MO 0.0        OCC NO =    0.0069499  ORB. ENERGY =    0.000000
 -0.22101525D-06 -0.40622650D-06 -0.66393384D-06 -0.89122063D-06 -0.86470701D-06
 -0.86172937D-07 -0.31485917D-06 -0.85947040D-06  0.97262209D-09 -0.55847438D+00
 -0.54930440D+00 -0.42106365D+00  0.56151367D-03  0.55229379D-03  0.42335514D-03
  0.11095678D-06  0.10913491D-06  0.83656243D-07  0.14017066D-05 -0.58691646D-01
  0.58931695D-04  0.30742643D-07 -0.81182271D-06  0.14699194D+00 -0.14788075D-03
 -0.82569671D-07 -0.80844843D-07 -0.16811932D-03  0.16938518D-06  0.54302131D-09
  0.13719760D-01 -0.13718571D-01 -0.11887877D-05  0.11898190D+01 -0.43140165D+00
  0.43438300D-03 -0.51598271D-01 -0.93075919D-01 -0.13721844D+00 -0.92679814D-01
  0.15734358D-01  0.14023884D-02  0.10256273D+00  0.25346356D-01 -0.17228978D-01
  0.52018059D-01  0.93833158D-01  0.13833481D+00  0.93433827D-01 -0.15862273D-01
 -0.14137894D-02  0.10180384D+00 -0.25142930D-01  0.17368784D-01 -0.41961514D-03
 -0.75692585D-03 -0.11159082D-02 -0.75363870D-03  0.12805586D-03  0.11403661D-04
  0.14588835D+00 -0.55563942D-03 -0.14019718D-03
MO   12     MO 0.0        OCC NO =    0.0061575  ORB. ENERGY =    0.000000
  0.67043008D-01  0.12322520D+00  0.20139842D+00  0.27034385D+00  0.26230118D+00
  0.26139794D-01  0.91093683D-01  0.24865823D+00 -0.28139479D-03 -0.14000576D-05
 -0.13770691D-05 -0.10555782D-05 -0.92278661D-04 -0.90763474D-04 -0.69573810D-04
  0.46545888D-01  0.45781619D-01  0.35093430D-01 -0.45937771D+00 -0.12222340D-07
 -0.37689465D-05  0.29941197D-02  0.36758399D+00  0.57572409D-06  0.34608561D-04
  0.28703656D-01  0.43799772D-01  0.91142009D-08  0.48765822D-06  0.68739151D-03
 -0.41400889D+00 -0.41412789D+00  0.82813678D+00 -0.11056688D-05 -0.22605167D-05
 -0.12562030D-03 -0.31627593D-01 -0.57051666D-01 -0.84109193D-01 -0.11065194D+00
 -0.22126520D-01 -0.11566303D-02  0.49007452D-01 -0.28804471D-01  0.66793226D-01
 -0.31627488D-01 -0.57051475D-01 -0.84108912D-01 -0.11065153D+00 -0.22126511D-01
 -0.11566331D-02 -0.49462859D-01 -0.28014549D-01  0.66793495D-01 -0.31639714D-01
 -0.57073529D-01 -0.84141426D-01 -0.11069439D+00 -0.22122681D-01 -0.11564765D-02
  0.45641092D-03  0.56890488D-01  0.66767414D-01
MO   13     MO 0.0        OCC NO =    0.0053502  ORB. ENERGY =    0.000000
  0.40820678D-07  0.75028494D-07  0.12262606D-06  0.16460507D-06  0.15970811D-06
  0.15915815D-07  0.51591547D-07  0.14082934D-06 -0.15936991D-09  0.10726500D+00
  0.10550374D+00  0.80872809D-01 -0.40021045D-03 -0.39363912D-03 -0.30174003D-03
  0.14475175D-06  0.14237497D-06  0.10913607D-06 -0.26991797D-06 -0.94220248D-02
  0.35134625D-04  0.29214411D-07  0.16788979D-06 -0.31234993D-01  0.11651825D-03
 -0.29766461D-07  0.18586199D-07  0.71905257D-03 -0.26823571D-05 -0.12960365D-08
  0.57054904D-02 -0.57063220D-02  0.83160416D-06  0.56121204D+00  0.17313627D+01
 -0.64595045D-02 -0.32129320D-02 -0.57956709D-02 -0.85443466D-02  0.23305126D-01
  0.51406488D-03 -0.11300290D-02 -0.21017872D-01  0.97103131D-01  0.23960811D+00
  0.32288248D-02  0.58243393D-02  0.85866113D-02 -0.23420914D-01 -0.51664386D-03
  0.11356412D-02 -0.23394867D-01 -0.95980858D-01 -0.24079763D+00 -0.15982601D-04
 -0.28830332D-04 -0.42503508D-04  0.11573111D-03  0.25382292D-05 -0.56119224D-05
  0.14500050D+00 -0.14975504D-02  0.11900471D-02
MO   14     MO 0.0        OCC NO =    0.0053501  ORB. ENERGY =    0.000000
  0.32898221D-05  0.60467003D-05  0.98826859D-05  0.13265860D-04  0.12871204D-04
  0.12826882D-05  0.40854420D-05  0.11152022D-04 -0.12620217D-07  0.40015243D-03
  0.39358205D-03  0.30169628D-03  0.10725679D+00  0.10549566D+00  0.80866617D-01
  0.18339625D-04  0.18038494D-04  0.13827222D-04 -0.21572573D-04 -0.35184079D-04
 -0.94255447D-02  0.65361362D-05  0.16206960D-04 -0.11654471D-03 -0.31233026D-01
 -0.92922174D-06  0.13039644D-05  0.26832454D-05  0.71909342D-03 -0.18900575D-06
  0.28050627D+00 -0.28055667D+00  0.50392116D-04 -0.11409007D-01  0.64600245D-02
  0.17314672D+01  0.18693225D-02  0.33719911D-02  0.49712037D-02 -0.13590437D-01
 -0.30022401D-03  0.65892963D-03  0.97332940D-01  0.88066627D-01 -0.13970366D+00
  0.18417097D-02  0.33221815D-02  0.48977712D-02 -0.13390040D-01 -0.29580939D-03
  0.64921051D-03 -0.95710584D-01  0.90443313D-01 -0.13764268D+00 -0.37179214D-02
 -0.67065998D-02 -0.98872959D-02  0.26970637D-01  0.59279991D-03 -0.13080727D-02
 -0.12471133D-02 -0.77935327D-01  0.27737852D+00
MO   15     MO 0.0        OCC NO =    0.0012949  ORB. ENERGY =    0.000000
 -0.22202792D-01 -0.40808780D-01 -0.66697593D-01 -0.89530414D-01 -0.86866904D-01
 -0.86567775D-02 -0.15136678D-01 -0.41318558D-01  0.46758262D-04  0.39417817D-06
  0.38770588D-06  0.29719197D-06  0.46218283D-04  0.45459393D-04  0.34846431D-04
 -0.17321589D+00 -0.17037174D+00 -0.13059671D+00  0.28120289D+00 -0.30855829D-07
  0.50629823D-06  0.23945909D-02 -0.36362917D+00 -0.24535330D-06 -0.20372356D-04
 -0.72078191D-01  0.42640114D-01  0.84451619D-08  0.64532202D-06  0.11243826D-02
 -0.56305456D+00 -0.56314067D+00  0.11261952D+01 -0.15847737D-05  0.12789102D-06
  0.68439384D-05  0.13468613D+00  0.24295456D+00  0.35817906D+00  0.11903405D+00
 -0.21940863D-01 -0.30865145D-02 -0.71361895D-01  0.41932898D-01  0.54474533D-01
  0.13468606D+00  0.24295444D+00  0.35817888D+00  0.11903401D+00 -0.21940860D-01
 -0.30865107D-02  0.72025273D-01  0.40783167D-01  0.54474722D-01  0.13470070D+00
  0.24298084D+00  0.35821781D+00  0.11905964D+00 -0.21949169D-01 -0.30867033D-02
 -0.66434490D-03 -0.82779009D-01  0.54452341D-01
MO   16     MO 0.0        OCC NO =    0.0009585  ORB. ENERGY =    0.000000
 -0.40367463D-07 -0.74195484D-07 -0.12126460D-06 -0.16277753D-06 -0.15793493D-06
 -0.15739108D-07 -0.17837831D-07 -0.48691889D-07  0.55102312D-10  0.17116281D+01
  0.16835237D+01  0.12904878D+01 -0.45605347D-03 -0.44856521D-03 -0.34384306D-03
 -0.12374233D-06 -0.12171052D-06 -0.93295950D-07  0.25082985D-06 -0.14254910D+00
  0.37987423D-04  0.71763398D-08 -0.30058953D-06  0.94798453D-01 -0.25121757D-04
 -0.81300634D-07 -0.56910740D-07 -0.45089649D-02  0.12041583D-05 -0.36378419D-08
 -0.14597280D-01  0.14597017D-01  0.26273618D-06 -0.12265364D+01  0.37224601D+00
 -0.98326609D-04 -0.17950913D+00 -0.32380886D+00 -0.47737961D+00  0.85363246D-02
  0.61809218D-01  0.15257623D-02  0.51700940D-01 -0.17822265D+00  0.18199057D+00
  0.18112388D+00  0.32672164D+00  0.48167381D+00 -0.86126957D-02 -0.62365114D-01
 -0.15394815D-02  0.57269288D-01  0.17503831D+00 -0.18362706D+00 -0.16146417D-02
 -0.29125833D-02 -0.42939155D-02  0.76609809D-04  0.55606879D-03  0.13717724D-04
 -0.25037061D+00  0.32221198D-02  0.16368971D-02
MO   17     MO 0.0        OCC NO =    0.0009584  ORB. ENERGY =    0.000000
 -0.23138826D-05 -0.42529212D-05 -0.69509455D-05 -0.93304870D-05 -0.90529071D-05
 -0.90217332D-06 -0.70232911D-06 -0.19171463D-05  0.21695440D-08  0.45410324D-03
  0.44664701D-03  0.34237268D-03  0.17115509D+01  0.16834478D+01  0.12904296D+01
 -0.88151762D-05 -0.86704338D-05 -0.66462321D-05  0.17685037D-04 -0.37815486D-04
 -0.14255193D+00  0.66751843D-06 -0.23204996D-04  0.25289850D-04  0.94804284D-01
 -0.61530943D-05 -0.25028256D-05 -0.11929853D-05 -0.45069140D-02 -0.16304679D-06
 -0.61342540D+00  0.61338502D+00  0.40371038D-04  0.29198146D-01  0.99649327D-04
  0.37235957D+00  0.10550881D+00  0.19032285D+00  0.28058604D+00 -0.49988237D-02
 -0.36325618D-01 -0.89591666D-03 -0.17793324D+00 -0.14616118D+00 -0.10692490D+00
  0.10271207D+00  0.18527792D+00  0.27314849D+00 -0.48658077D-02 -0.35362629D-01
 -0.87216104D-03  0.17470184D+00 -0.15173523D+00 -0.10408982D+00 -0.20820052D+00
 -0.37556403D+00 -0.55368037D+00  0.98728462D-02  0.71700199D-01  0.17675886D-02
  0.31939934D-02  0.15648898D+00  0.21104019D+00
MO   18     MO 0.0        OCC NO =    0.0008751  ORB. ENERGY =    0.000000
 -0.13385182D-10 -0.24601994D-10 -0.40209332D-10 -0.53974333D-10 -0.52368608D-10
 -0.52188276D-11 -0.12684050D-10 -0.34623625D-10  0.39181922D-13 -0.17877406D-02
 -0.17583865D-02 -0.13478731D-02  0.29211061D-04  0.28731424D-04  0.22023778D-04
  0.25178613D-09  0.24765188D-09  0.18983501D-09  0.78607114D-10  0.22599592D-03
 -0.35438531D-05 -0.10661997D-10  0.31547461D-11 -0.61954199D-06  0.18671377D-06
  0.67712024D-11 -0.47235358D-11  0.18643443D-05 -0.36866392D-07 -0.38781734D-12
  0.11195264D-06 -0.11202072D-06  0.68085783D-10  0.19113981D-03  0.12346117D-03
 -0.12443088D-05  0.92232411D-04  0.16637411D-03  0.24527929D-03 -0.86978822D-04
 -0.40616561D-04  0.11935161D-05 -0.30690525D+00 -0.52177919D+00 -0.16953972D-03
 -0.91264659D-04 -0.16462842D-03 -0.24270569D-03  0.86357158D-04  0.40198017D-04
 -0.11887344D-05 -0.29849377D+00  0.52663231D+00  0.16790618D-03 -0.96770751D-06
 -0.17456063D-05 -0.25734838D-05  0.62152195D-06  0.41858954D-06 -0.47843712D-08
  0.60568207D+00 -0.48577193D-02  0.16335046D-05
MO   19     MO 0.0        OCC NO =    0.0007928  ORB. ENERGY =    0.000000
 -0.63716479D-05 -0.11711103D-04 -0.19140547D-04 -0.25692997D-04 -0.24928636D-04
 -0.24842794D-05 -0.74321280D-05 -0.20287464D-04  0.22958366D-07  0.88051269D-02
  0.86605494D-02  0.66386553D-02  0.17058009D+01  0.16777922D+01  0.12860944D+01
  0.18061512D-03  0.17764948D-03  0.13617538D-03  0.28062275D-04 -0.13423204D-02
 -0.26006341D+00 -0.23052811D-04  0.18697230D-04 -0.73472627D-03 -0.14234187D+00
  0.18971503D-04 -0.10810325D-04 -0.86346814D-06 -0.16669306D-03 -0.10545901D-05
  0.85874570D+00 -0.85873187D+00 -0.13833144D-04 -0.32466217D-01 -0.68234985D-02
 -0.13220008D+01 -0.32461286D-01 -0.58555529D-01 -0.86326284D-01 -0.11619471D+00
  0.10070811D-02  0.13721680D-02 -0.88374132D-01 -0.17648599D+00 -0.19859245D+00
 -0.32141391D-01 -0.57978484D-01 -0.85475568D-01 -0.11504959D+00  0.99718452D-03
  0.13586459D-02  0.85968475D-01 -0.17838663D+00 -0.19663536D+00  0.64566322D-01
  0.11646843D+00  0.17170517D+00  0.23121034D+00 -0.19822010D-02 -0.27296272D-02
  0.43835718D-03 -0.26291322D-01  0.39513786D+00
MO   20     MO 0.0        OCC NO =    0.0007928  ORB. ENERGY =    0.000000
 -0.12574149D-07 -0.23111314D-07 -0.37772975D-07 -0.50703930D-07 -0.49195499D-07
 -0.49026093D-08 -0.24678854D-07 -0.67365815D-07  0.76234713D-10  0.17056197D+01
  0.16776140D+01  0.12859578D+01 -0.88031495D-02 -0.86586045D-02 -0.66371644D-02
  0.89649644D-06  0.88177625D-06  0.67591654D-06  0.64357189D-07 -0.26008942D+00
  0.13424833D-02 -0.17780500D-06  0.90232515D-07 -0.14237628D+00  0.73486564D-03
  0.13270672D-06 -0.68341147D-07 -0.16673719D-03  0.85755447D-06 -0.62932369D-08
  0.16234096D-01 -0.16234237D-01  0.14088437D-06  0.17176214D+01 -0.13221695D+01
  0.68245642D-02  0.55852618D-01  0.10075015D+00  0.14853228D+00  0.19994272D+00
 -0.17224597D-02 -0.23601388D-02 -0.77765265D-01 -0.87274126D-01  0.34162856D+00
 -0.56037399D-01 -0.10108347D+00 -0.14902368D+00 -0.20060406D+00  0.17282206D-02
  0.23679490D-02 -0.75865221D-01  0.87491512D-01 -0.34275888D+00  0.18461616D-03
  0.33302122D-03  0.49096106D-03  0.66118496D-03 -0.56267350D-05 -0.78014312D-05
 -0.22754353D+00  0.17501726D-02  0.11295412D-02
MO   21     MO 0.0        OCC NO =    0.0006746  ORB. ENERGY =    0.000000
 -0.58816960D-01 -0.10810570D+00 -0.17668722D+00 -0.23717318D+00 -0.23011733D+00
 -0.22932492D-01 -0.44961079D-01 -0.12273016D+00  0.13888793D-03 -0.13315963D-05
 -0.13097319D-05 -0.10039616D-05 -0.55019518D-04 -0.54116115D-04 -0.41482153D-04
  0.24555651D+01  0.24152455D+01  0.18513817D+01  0.31194093D+00  0.27712415D-06
  0.10969483D-04 -0.53015382D+00 -0.16938732D+00  0.12792464D-06  0.10480767D-04
  0.11991036D+00 -0.84380460D-01 -0.23654695D-07 -0.13173320D-05 -0.61328401D-02
 -0.18695969D+00 -0.18682252D+00  0.37378222D+00  0.13207149D-05  0.13778998D-05
  0.15141854D-03 -0.43537836D-01 -0.78536044D-01 -0.11578283D+00  0.72948881D-01
  0.55977473D-01  0.24465726D-02  0.25332018D+00 -0.14894008D+00 -0.37353409D+00
 -0.43537860D-01 -0.78536088D-01 -0.11578289D+00  0.72949128D-01  0.55977446D-01
  0.24465585D-02 -0.25567684D+00 -0.14485779D+00 -0.37353443D+00 -0.43534555D-01
 -0.78530126D-01 -0.11577411D+00  0.72906158D-01  0.55981684D-01  0.24470216D-02
  0.23572157D-02  0.29384472D+00 -0.37359674D+00
MO   22     MO 0.0        OCC NO =    0.0005830  ORB. ENERGY =    0.000000
 -0.49381544D-05 -0.90763385D-05 -0.14834306D-04 -0.19912586D-04 -0.19320191D-04
 -0.19253661D-05 -0.29988977D-05 -0.81860846D-05  0.92638056D-08  0.84811671D-02
  0.83419090D-02  0.63944047D-02  0.17996971D+01  0.17701467D+01  0.13568878D+01
 -0.15017301D-03 -0.14770722D-03 -0.11322345D-03  0.16532226D-04 -0.16292337D-02
 -0.34573800D+00  0.35882959D-04  0.11880469D-04 -0.42553223D-03 -0.90305269D-01
 -0.14917214D-05  0.81703208D-06  0.95510913D-05  0.20267658D-02  0.89859065D-07
  0.53460452D+00 -0.53452170D+00 -0.82818051D-04 -0.20690761D-01  0.66213745D-02
  0.14051000D+01 -0.17504198D-02 -0.31575076D-02 -0.46549985D-02 -0.76890938D-01
 -0.41630379D-02  0.23976564D-02 -0.14559351D+00 -0.20992028D-01  0.36081409D+00
 -0.17305293D-02 -0.31216279D-02 -0.46021023D-02 -0.76014708D-01 -0.41156014D-02
  0.23703329D-02  0.14427310D+00 -0.24277136D-01  0.35670238D+00  0.34603420D-02
  0.62419632D-02  0.92022991D-02  0.15288106D+00  0.82830627D-02 -0.47684027D-02
  0.21836816D-02  0.22845171D+00 -0.71748994D+00
MO   23     MO 0.0        OCC NO =    0.0005830  ORB. ENERGY =    0.000000
 -0.51075023D-07 -0.93876004D-07 -0.15343030D-06 -0.20595464D-06 -0.19982753D-06
 -0.19913942D-07 -0.35144724D-07 -0.95934478D-07  0.10856452D-09  0.17997320D+01
  0.17701810D+01  0.13569141D+01 -0.84806808D-02 -0.83414306D-02 -0.63940381D-02
  0.64434512D-06  0.63376518D-06  0.48580619D-06  0.21803571D-06 -0.34578422D+00
  0.16294760D-02 -0.11474140D-06  0.15089615D-07 -0.90307625D-01  0.42558285D-03
  0.89741395D-07 -0.15560948D-07  0.20270850D-02 -0.95521594D-05 -0.41112656D-08
  0.10345449D-01 -0.10345084D-01 -0.36536782D-06  0.10691543D+01  0.14051842D+01
 -0.66217288D-02  0.29941466D-02  0.54010133D-02  0.79625172D-02  0.13215970D+00
  0.71604220D-02 -0.41216799D-02  0.14308011D+00 -0.14624096D+00 -0.62020221D+00
 -0.30057290D-02 -0.54219064D-02 -0.79933191D-02 -0.13266556D+00 -0.71877824D-02
  0.41374556D-02  0.14636510D+00  0.14376921D+00  0.62257575D+00  0.11381235D-04
  0.20530123D-04  0.30266813D-04  0.50577710D-03  0.27449532D-04 -0.15777757D-04
 -0.10627873D+00  0.16086417D-02 -0.23740493D-02
MO   24     MO 0.0        OCC NO =    0.0004328  ORB. ENERGY =    0.000000
 -0.16063307D+00 -0.29524394D+00 -0.48254469D+00 -0.64773590D+00 -0.62846589D+00
 -0.62630176D-01 -0.46878583D-01 -0.12796437D+00  0.14481124D-03  0.27943152D-05
  0.27484334D-05  0.21067834D-05  0.13202158D-03  0.12985383D-03  0.99538120D-04
 -0.12346091D+01 -0.12143372D+01 -0.93083776D+00  0.63988875D+00 -0.27936586D-06
 -0.24797595D-04  0.55748976D+00 -0.21791506D+00 -0.57046026D-06 -0.30575097D-04
 -0.14622488D+00 -0.70697020D-01 -0.29856952D-07 -0.17303227D-05 -0.34440730D-02
  0.23538525D+00  0.23549713D+00 -0.47088238D+00  0.15335654D-05 -0.26748481D-05
 -0.16305061D-03 -0.78490397D-01 -0.14158548D+00 -0.20873431D+00  0.56040985D-01
  0.69418271D-01  0.96124984D-04  0.39364033D+00 -0.23133197D+00  0.42721719D+00
 -0.78490482D-01 -0.14158563D+00 -0.20873454D+00  0.56040566D-01  0.69418161D-01
  0.96127564D-04 -0.39729968D+00 -0.22498881D+00  0.42721715D+00 -0.78474586D-01
 -0.14155696D+00 -0.20869227D+00  0.56064833D-01  0.69427336D-01  0.95400665D-04
  0.36633937D-02  0.45656892D+00  0.42722828D+00
MO   25     MO 0.0        OCC NO =    0.0003600  ORB. ENERGY =    0.000000
 -0.58708863D-02 -0.10790702D-01 -0.17636250D-01 -0.23673729D-01 -0.22969441D-01
 -0.22890345D-02  0.92053382D-02  0.25127792D-01 -0.28435936D-04 -0.14511377D-05
 -0.14273105D-05 -0.10940902D-05 -0.11544453D-03 -0.11354896D-03 -0.87039792D-04
 -0.40357179D+01 -0.39694527D+01 -0.30427432D+01 -0.27324489D-01  0.32550974D-06
  0.27319924D-04  0.12686946D+01 -0.16810792D-01  0.42651313D-07  0.64668886D-05
 -0.75376700D-01 -0.18114524D-01 -0.10165829D-07 -0.10076023D-05  0.65974637D-02
 -0.16317365D+00 -0.16318130D+00  0.32635494D+00 -0.11125242D-06  0.81569148D-06
  0.15449551D-04 -0.33761007D-01 -0.60900039D-01 -0.89782710D-01  0.56374174D-01
 -0.54882570D-03  0.21372893D-02  0.64904988D-01 -0.38196255D-01 -0.42500280D+00
 -0.33760985D-01 -0.60900001D-01 -0.89782654D-01  0.56374186D-01 -0.54885781D-03
  0.21372889D-02 -0.65509504D-01 -0.37150214D-01 -0.42500265D+00 -0.33760173D-01
 -0.60898536D-01 -0.89780494D-01  0.56358288D-01 -0.54472795D-03  0.21384817D-02
  0.60377698D-03  0.75282721D-01 -0.42497353D+00
MO   26     MO 0.0        OCC NO =    0.0002989  ORB. ENERGY =    0.000000
 -0.39233610D-06 -0.72111460D-06 -0.11785848D-05 -0.15820539D-05 -0.15349881D-05
 -0.15297023D-06 -0.26236328D-07 -0.71617249D-07  0.81045860D-10 -0.27513820D+01
 -0.27062051D+01 -0.20744138D+01  0.15870395D-01  0.15609808D-01  0.11965538D-01
 -0.61151576D-06 -0.60147486D-06 -0.46105438D-06  0.12117344D-05  0.67345624D+00
 -0.38845768D-02  0.66062463D-06  0.25173818D-06  0.69751806D-01 -0.40227441D-03
 -0.21495911D-07  0.18902857D-06 -0.33535871D-02  0.19341705D-04 -0.19720517D-10