 gdb_214                                                 
GAUSSIAN            126 MOL ORBITALS    222 PRIMITIVES       12 NUCLEI
  C    1    (CENTRE  1)   2.63446876 -0.21992161 -0.00000557  CHARGE =  6.0
  C    2    (CENTRE  2)   1.50769074  2.17144401  0.00000533  CHARGE =  6.0
  C    3    (CENTRE  3)  -1.12674178  2.39128937 -0.00000747  CHARGE =  6.0
  C    4    (CENTRE  4)  -2.63446698  0.21991295  0.00000602  CHARGE =  6.0
  C    5    (CENTRE  5)  -1.50769875 -2.17143959 -0.00000517  CHARGE =  6.0
  C    6    (CENTRE  6)   1.12674508 -2.39128600  0.00000510  CHARGE =  6.0
  H    7    (CENTRE  7)   4.67288507 -0.39026703 -0.00000516  CHARGE =  1.0
  H    8    (CENTRE  8)   2.67421499  3.85173634  0.00000731  CHARGE =  1.0
  H    9    (CENTRE  9)  -1.99858727  4.24173583  0.00000135  CHARGE =  1.0
  H   10    (CENTRE 10)  -4.67288341  0.39028191  0.00000545  CHARGE =  1.0
  H   11    (CENTRE 11)  -2.67419999 -3.85174652 -0.00000697  CHARGE =  1.0
  H   12    (CENTRE 12)   1.99858814 -4.24173533  0.00000861  CHARGE =  1.0
CENTRE ASSIGNMENTS    1  1  1  1  1  1  1  1  1  1  1  1  1  1  1  1  1  1  1  1
CENTRE ASSIGNMENTS    1  1  1  1  1  1  1  1  1  1  1  1  2  2  2  2  2  2  2  2
CENTRE ASSIGNMENTS    2  2  2  2  2  2  2  2  2  2  2  2  2  2  2  2  2  2  2  2
CENTRE ASSIGNMENTS    2  2  2  2  3  3  3  3  3  3  3  3  3  3  3  3  3  3  3  3
CENTRE ASSIGNMENTS    3  3  3  3  3  3  3  3  3  3  3  3  3  3  3  3  4  4  4  4
CENTRE ASSIGNMENTS    4  4  4  4  4  4  4  4  4  4  4  4  4  4  4  4  4  4  4  4
CENTRE ASSIGNMENTS    4  4  4  4  4  4  4  4  5  5  5  5  5  5  5  5  5  5  5  5
CENTRE ASSIGNMENTS    5  5  5  5  5  5  5  5  5  5  5  5  5  5  5  5  5  5  5  5
CENTRE ASSIGNMENTS    6  6  6  6  6  6  6  6  6  6  6  6  6  6  6  6  6  6  6  6
CENTRE ASSIGNMENTS    6  6  6  6  6  6  6  6  6  6  6  6  7  7  7  7  7  8  8  8
CENTRE ASSIGNMENTS    8  8  9  9  9  9  9 10 10 10 10 10 11 11 11 11 11 12 12 12
CENTRE ASSIGNMENTS   12 12
TYPE ASSIGNMENTS      1  1  1  1  1  1  1  1  1  2  2  2  3  3  3  4  4  4  1  2
TYPE ASSIGNMENTS      3  4  1  2  3  4  5  6  7  8  9 10  1  1  1  1  1  1  1  1
TYPE ASSIGNMENTS      1  2  2  2  3  3  3  4  4  4  1  2  3  4  1  2  3  4  5  6
TYPE ASSIGNMENTS      7  8  9 10  1  1  1  1  1  1  1  1  1  2  2  2  3  3  3  4
TYPE ASSIGNMENTS      4  4  1  2  3  4  1  2  3  4  5  6  7  8  9 10  1  1  1  1
TYPE ASSIGNMENTS      1  1  1  1  1  2  2  2  3  3  3  4  4  4  1  2  3  4  1  2
TYPE ASSIGNMENTS      3  4  5  6  7  8  9 10  1  1  1  1  1  1  1  1  1  2  2  2
TYPE ASSIGNMENTS      3  3  3  4  4  4  1  2  3  4  1  2  3  4  5  6  7  8  9 10
TYPE ASSIGNMENTS      1  1  1  1  1  1  1  1  1  2  2  2  3  3  3  4  4  4  1  2
TYPE ASSIGNMENTS      3  4  1  2  3  4  5  6  7  8  9 10  1  1  1  1  1  1  1  1
TYPE ASSIGNMENTS      1  1  1  1  1  1  1  1  1  1  1  1  1  1  1  1  1  1  1  1
TYPE ASSIGNMENTS      1  1
EXPONENTS  0.4563240D+04 0.6820240D+03 0.1549730D+03 0.4445530D+02 0.1302900D+02
EXPONENTS  0.1827730D+01 0.2096420D+02 0.4803310D+01 0.1459330D+01 0.2096420D+02
EXPONENTS  0.4803310D+01 0.1459330D+01 0.2096420D+02 0.4803310D+01 0.1459330D+01
EXPONENTS  0.2096420D+02 0.4803310D+01 0.1459330D+01 0.4834560D+00 0.4834560D+00
EXPONENTS  0.4834560D+00 0.4834560D+00 0.1455850D+00 0.1455850D+00 0.1455850D+00
EXPONENTS  0.1455850D+00 0.6260000D+00 0.6260000D+00 0.6260000D+00 0.6260000D+00
EXPONENTS  0.6260000D+00 0.6260000D+00 0.4563240D+04 0.6820240D+03 0.1549730D+03
EXPONENTS  0.4445530D+02 0.1302900D+02 0.1827730D+01 0.2096420D+02 0.4803310D+01
EXPONENTS  0.1459330D+01 0.2096420D+02 0.4803310D+01 0.1459330D+01 0.2096420D+02
EXPONENTS  0.4803310D+01 0.1459330D+01 0.2096420D+02 0.4803310D+01 0.1459330D+01
EXPONENTS  0.4834560D+00 0.4834560D+00 0.4834560D+00 0.4834560D+00 0.1455850D+00
EXPONENTS  0.1455850D+00 0.1455850D+00 0.1455850D+00 0.6260000D+00 0.6260000D+00
EXPONENTS  0.6260000D+00 0.6260000D+00 0.6260000D+00 0.6260000D+00 0.4563240D+04
EXPONENTS  0.6820240D+03 0.1549730D+03 0.4445530D+02 0.1302900D+02 0.1827730D+01
EXPONENTS  0.2096420D+02 0.4803310D+01 0.1459330D+01 0.2096420D+02 0.4803310D+01
EXPONENTS  0.1459330D+01 0.2096420D+02 0.4803310D+01 0.1459330D+01 0.2096420D+02
EXPONENTS  0.4803310D+01 0.1459330D+01 0.4834560D+00 0.4834560D+00 0.4834560D+00
EXPONENTS  0.4834560D+00 0.1455850D+00 0.1455850D+00 0.1455850D+00 0.1455850D+00
EXPONENTS  0.6260000D+00 0.6260000D+00 0.6260000D+00 0.6260000D+00 0.6260000D+00
EXPONENTS  0.6260000D+00 0.4563240D+04 0.6820240D+03 0.1549730D+03 0.4445530D+02
EXPONENTS  0.1302900D+02 0.1827730D+01 0.2096420D+02 0.4803310D+01 0.1459330D+01
EXPONENTS  0.2096420D+02 0.4803310D+01 0.1459330D+01 0.2096420D+02 0.4803310D+01
EXPONENTS  0.1459330D+01 0.2096420D+02 0.4803310D+01 0.1459330D+01 0.4834560D+00
EXPONENTS  0.4834560D+00 0.4834560D+00 0.4834560D+00 0.1455850D+00 0.1455850D+00
EXPONENTS  0.1455850D+00 0.1455850D+00 0.6260000D+00 0.6260000D+00 0.6260000D+00
EXPONENTS  0.6260000D+00 0.6260000D+00 0.6260000D+00 0.4563240D+04 0.6820240D+03
EXPONENTS  0.1549730D+03 0.4445530D+02 0.1302900D+02 0.1827730D+01 0.2096420D+02
EXPONENTS  0.4803310D+01 0.1459330D+01 0.2096420D+02 0.4803310D+01 0.1459330D+01
EXPONENTS  0.2096420D+02 0.4803310D+01 0.1459330D+01 0.2096420D+02 0.4803310D+01
EXPONENTS  0.1459330D+01 0.4834560D+00 0.4834560D+00 0.4834560D+00 0.4834560D+00
EXPONENTS  0.1455850D+00 0.1455850D+00 0.1455850D+00 0.1455850D+00 0.6260000D+00
EXPONENTS  0.6260000D+00 0.6260000D+00 0.6260000D+00 0.6260000D+00 0.6260000D+00
EXPONENTS  0.4563240D+04 0.6820240D+03 0.1549730D+03 0.4445530D+02 0.1302900D+02
EXPONENTS  0.1827730D+01 0.2096420D+02 0.4803310D+01 0.1459330D+01 0.2096420D+02
EXPONENTS  0.4803310D+01 0.1459330D+01 0.2096420D+02 0.4803310D+01 0.1459330D+01
EXPONENTS  0.2096420D+02 0.4803310D+01 0.1459330D+01 0.4834560D+00 0.4834560D+00
EXPONENTS  0.4834560D+00 0.4834560D+00 0.1455850D+00 0.1455850D+00 0.1455850D+00
EXPONENTS  0.1455850D+00 0.6260000D+00 0.6260000D+00 0.6260000D+00 0.6260000D+00
EXPONENTS  0.6260000D+00 0.6260000D+00 0.3386500D+02 0.5094790D+01 0.1158790D+01
EXPONENTS  0.3258400D+00 0.1027410D+00 0.3386500D+02 0.5094790D+01 0.1158790D+01
EXPONENTS  0.3258400D+00 0.1027410D+00 0.3386500D+02 0.5094790D+01 0.1158790D+01
EXPONENTS  0.3258400D+00 0.1027410D+00 0.3386500D+02 0.5094790D+01 0.1158790D+01
EXPONENTS  0.3258400D+00 0.1027410D+00 0.3386500D+02 0.5094790D+01 0.1158790D+01
EXPONENTS  0.3258400D+00 0.1027410D+00 0.3386500D+02 0.5094790D+01 0.1158790D+01
EXPONENTS  0.3258400D+00 0.1027410D+00
MO    1     MO 0.0        OCC NO =    2.0000023  ORB. ENERGY =    0.000000
  0.17841425D+00  0.33213469D+00  0.54635844D+00  0.73366769D+00  0.69077579D+00
  0.56765645D-01  0.15167626D+00  0.40303222D+00 -0.54331559D-03 -0.87824705D-03
 -0.82182286D-03 -0.63653357D-03  0.73301261D-04  0.68591920D-04  0.53127093D-04
  0.97439885D-08  0.91179725D-08  0.70622221D-08  0.18908134D-02 -0.27809490D-03
  0.23230597D-04  0.24540239D-08  0.13641637D-03 -0.11051653D-04  0.92616613D-06
 -0.38621344D-09  0.68967844D-04  0.10250476D-03 -0.17147260D-03  0.56250933D-05
 -0.81701371D-09  0.13652632D-10  0.17840131D+00  0.33211061D+00  0.54631883D+00
  0.73361449D+00  0.69072570D+00  0.56761529D-01  0.15166522D+00  0.40300288D+00
 -0.54327604D-03 -0.50260172D-03 -0.47031138D-03 -0.36427434D-03 -0.72397068D-03
 -0.67745818D-03 -0.52471755D-03 -0.10894241D-07 -0.10194325D-07 -0.78958990D-08
  0.18907389D-02 -0.15915031D-03 -0.22922884D-03 -0.18143390D-08  0.13646721D-03
 -0.63415414D-05 -0.91308066D-05  0.47524346D-09  0.91667619D-04  0.79787587D-04
 -0.17145521D-03 -0.31867152D-04  0.51905059D-09  0.81984395D-09  0.17840007D+00
  0.33210830D+00  0.54631503D+00  0.73360939D+00  0.69072090D+00  0.56761134D-01
  0.15166415D+00  0.40300004D+00 -0.54327221D-03  0.37559954D-03  0.35146863D-03
  0.27222604D-03 -0.79713319D-03 -0.74592026D-03 -0.57774408D-03  0.13556107D-07
  0.12685176D-07  0.98251592D-08  0.18907697D-02  0.11891902D-03 -0.25242391D-03
  0.38019687D-08  0.13647104D-03  0.47346106D-05 -0.10045424D-04 -0.38709981D-09
  0.96555584D-04  0.74906038D-04 -0.17146162D-03  0.26284459D-04 -0.15402698D-10
  0.12251566D-10  0.17841423D+00  0.33213465D+00  0.54635838D+00  0.73366760D+00
  0.69077570D+00  0.56765638D-01  0.15167624D+00  0.40303217D+00 -0.54331552D-03
  0.87824281D-03  0.82181888D-03  0.63653049D-03 -0.73308400D-04 -0.68598601D-04
 -0.53132268D-04 -0.11905475D-07 -0.11140591D-07 -0.86288185D-08  0.18908187D-02
  0.27808936D-03 -0.23231698D-04 -0.24324577D-08  0.13641898D-03  0.11052165D-04
 -0.92608775D-06  0.43603715D-09  0.68965462D-04  0.10250722D-03 -0.17147268D-03
  0.56138183D-05 -0.76586100D-09  0.10841464D-09  0.17840269D+00  0.33211317D+00
  0.54632304D+00  0.73362015D+00  0.69073102D+00  0.56761966D-01  0.15166639D+00
  0.40300600D+00 -0.54328023D-03  0.50259693D-03  0.47030690D-03  0.36427087D-03
  0.72397671D-03  0.67746383D-03  0.52472192D-03  0.91667059D-08  0.85777782D-08
  0.66438207D-08  0.18907469D-02  0.15914884D-03  0.22922935D-03  0.19548537D-08
  0.13646285D-03  0.63408225D-05  0.91297490D-05 -0.42973891D-09  0.91662004D-04
  0.79794469D-04 -0.17145647D-03 -0.31870939D-04  0.61720192D-09  0.80859183D-09
  0.17839925D+00  0.33210676D+00  0.54631250D+00  0.73360599D+00  0.69071770D+00
  0.56760871D-01  0.15166344D+00  0.40299817D+00 -0.54326968D-03 -0.37559284D-03
 -0.35146235D-03 -0.27222118D-03  0.79713308D-03  0.74592017D-03  0.57774400D-03
 -0.95315334D-08 -0.89191669D-08 -0.69082395D-08  0.18907672D-02 -0.11891670D-03
  0.25242295D-03 -0.21000034D-08  0.13647475D-03 -0.47356980D-05  0.10045968D-04
  0.35992495D-09  0.96553797D-04  0.74907121D-04 -0.17146092D-03  0.26289036D-04
  0.53222172D-09 -0.11231382D-08  0.11021463D-03  0.19881147D-03  0.29310052D-03
  0.57385865D-04  0.16330213D-04  0.11020774D-03  0.19879903D-03  0.29308217D-03
  0.57388913D-04  0.16330119D-04  0.11021938D-03  0.19882003D-03  0.29311314D-03
  0.57405084D-04  0.16330234D-04  0.11021605D-03  0.19881403D-03  0.29310429D-03
  0.57388542D-04  0.16330844D-04  0.11020822D-03  0.19879991D-03  0.29308347D-03
  0.57388473D-04  0.16330201D-04  0.11021967D-03  0.19882056D-03  0.29311391D-03
  0.57406429D-04  0.16330433D-04
MO    2     MO 0.0        OCC NO =    2.0000008  ORB. ENERGY =    0.000000
 -0.17919816D+00 -0.33359401D+00 -0.54875901D+00 -0.73689125D+00 -0.69381089D+00
 -0.57015059D-01 -0.15284707D+00 -0.40614327D+00  0.54750951D-03  0.23302387D-03
  0.21805293D-03  0.16889042D-03 -0.19192068D-04 -0.17959047D-04 -0.13909976D-04
 -0.16677087D-07 -0.15605644D-07 -0.12087175D-07 -0.58346763D-03  0.29726210D-03
 -0.24729932D-04 -0.69576531D-08  0.46810564D-03 -0.14000287D-03  0.11704113D-04
 -0.97375393D-10 -0.90514885D-05 -0.15287533D-03  0.16192682D-03 -0.24227708D-04
  0.48337053D-09 -0.37570720D-09  0.17902567D+00  0.33327291D+00  0.54823081D+00
  0.73618196D+00  0.69314307D+00  0.56960180D-01  0.15270023D+00  0.40575310D+00
 -0.54698353D-03 -0.13386634D-03 -0.12526591D-03 -0.97023291D-04 -0.19161633D-03
 -0.17930567D-03 -0.13887917D-03 -0.22205740D-07 -0.20779101D-07 -0.16094217D-07
  0.58211146D-03 -0.17008145D-03 -0.24487809D-03 -0.81167206D-08 -0.46817390D-03
  0.80099540D-04  0.11539171D-03 -0.19847553D-09  0.10634391D-03  0.55419603D-04
 -0.16176352D-03 -0.13654604D-03  0.71321279D-09  0.42246967D-09 -0.17893353D+00
 -0.33310137D+00 -0.54794862D+00 -0.73580304D+00 -0.69278630D+00 -0.56930862D-01
 -0.15262178D+00 -0.40554464D+00  0.54670251D-03 -0.10009136D-03 -0.93660853D-04
 -0.72543951D-04  0.21106029D-03  0.19750043D-03  0.15297172D-03 -0.20914115D-07
 -0.19570459D-07 -0.15158077D-07 -0.58144329D-03 -0.12706943D-03  0.26965613D-03
 -0.84451916D-08  0.46818336D-03  0.59863141D-04 -0.12706375D-03 -0.42414666D-09
 -0.12723090D-03 -0.34470768D-04  0.16170167D-03 -0.11240793D-03 -0.87623724D-10
  0.24471019D-09  0.17919675D+00  0.33359139D+00  0.54875470D+00  0.73688546D+00
  0.69380544D+00  0.57014612D-01  0.15284586D+00  0.40614008D+00 -0.54750520D-03
  0.23302747D-03  0.21805630D-03  0.16889303D-03 -0.19166874D-04 -0.17935472D-04
 -0.13891716D-04 -0.21697015D-07 -0.20303060D-07 -0.15725505D-07  0.58347092D-03
  0.29725804D-03 -0.24762103D-04 -0.81387758D-08 -0.46810553D-03 -0.14000223D-03
  0.11708637D-04 -0.20719811D-09  0.90481579D-05  0.15287859D-03 -0.16192675D-03
  0.24194605D-04 -0.68234447D-09 -0.25232255D-09 -0.17902308D+00 -0.33326808D+00
 -0.54822286D+00 -0.73617129D+00 -0.69313302D+00 -0.56959354D-01 -0.15269802D+00
 -0.40574722D+00  0.54697560D-03 -0.13389287D-03 -0.12529074D-03 -0.97042519D-04
 -0.19160555D-03 -0.17929558D-03 -0.13887136D-03 -0.17664168D-07 -0.16529310D-07
 -0.12802589D-07 -0.58210433D-03 -0.17005574D-03 -0.24489657D-03 -0.71108830D-08
  0.46817395D-03  0.80095629D-04  0.11539454D-03 -0.99637954D-10 -0.10632747D-03
 -0.55434983D-04  0.16176245D-03  0.13655767D-03 -0.60528051D-10 -0.71778380D-09
  0.17893456D+00  0.33310329D+00  0.54795178D+00  0.73580727D+00  0.69279028D+00
  0.56931189D-01  0.15262266D+00  0.40554697D+00 -0.54670565D-03 -0.10009904D-03
 -0.93668039D-04 -0.72549517D-04  0.21105281D-03  0.19749343D-03  0.15296629D-03
 -0.16060577D-07 -0.15028743D-07 -0.11640342D-07  0.58144896D-03 -0.12703645D-03
  0.26967079D-03 -0.65247475D-08 -0.46818321D-03  0.59860202D-04 -0.12706495D-03
  0.11443924D-09  0.12721909D-03  0.34483258D-04 -0.16170234D-03  0.11242885D-03
  0.33921877D-09 -0.63370693D-09  0.35496990D-04  0.64031505D-04  0.94399316D-04
  0.18779457D-03  0.39366136D-04 -0.35587014D-04 -0.64193896D-04 -0.94638723D-04
 -0.18780828D-03 -0.39373224D-04  0.35627012D-04  0.64266047D-04  0.94745094D-04
  0.18780821D-03  0.39379804D-04 -0.35496125D-04 -0.64029946D-04 -0.94397017D-04
 -0.18779231D-03 -0.39365979D-04  0.35587458D-04  0.64194697D-04  0.94639904D-04
  0.18780816D-03  0.39373483D-04 -0.35626396D-04 -0.64264936D-04 -0.94743455D-04
 -0.18780738D-03 -0.39379585D-04
MO    3     MO 0.0        OCC NO =    2.0000007  ORB. ENERGY =    0.000000
  0.25252377D+00  0.47009645D+00  0.77330423D+00  0.10384178D+01  0.97770950D+00
  0.80344899D-01  0.21498973D+00  0.57126796D+00 -0.77010912D-03 -0.83259397D-04
 -0.77910282D-04 -0.60344525D-04  0.35037294D-04  0.32786274D-04  0.25394237D-04
  0.80073570D-08  0.74929133D-08  0.58035509D-08  0.18592203D-02 -0.82892117D-04
  0.11197879D-04  0.10517361D-08  0.91152815D-04  0.21987339D-04 -0.17579226D-05
  0.27487344D-10  0.48257358D-04  0.14478039D-03 -0.19303775D-03  0.14681586D-04
 -0.12157194D-08 -0.61195354D-10  0.13196548D+00  0.24566598D+00  0.40411823D+00
  0.54266296D+00  0.51093764D+00  0.41987147D-01  0.11235093D+00  0.29853747D+00
 -0.40244936D-03  0.74889652D-03  0.70078262D-03  0.54278323D-03 -0.57480792D-03
 -0.53787859D-03 -0.41660776D-03 -0.75237541D-08 -0.70403801D-08 -0.54530465D-08
  0.97095311D-03  0.93262737D-04 -0.11808522D-03 -0.10811299D-08  0.47146376D-04
  0.88679142D-05  0.80230768D-05 -0.19208008D-09  0.35365563D-04  0.65516820D-04
 -0.10088238D-03 -0.65801016D-04  0.13107153D-08  0.35946734D-09 -0.12086388D+00
 -0.22499934D+00 -0.37012180D+00 -0.49701146D+00 -0.46795502D+00 -0.38454980D-01
 -0.10289942D+00 -0.27342303D+00  0.36859335D-03  0.86084034D-03  0.80553446D-03
  0.62391757D-03  0.45112877D-03  0.42214538D-03  0.32696791D-03 -0.64351263D-08
 -0.60216927D-08 -0.46640337D-08 -0.88926500D-03  0.11699673D-03  0.99465807D-04
 -0.13759015D-08 -0.43148809D-04  0.70716902D-05 -0.84746767D-05 -0.86994705D-10
 -0.40754302D-04 -0.51644158D-04  0.92398460D-04 -0.69720552D-04 -0.10638749D-08
 -0.54242048D-09 -0.25252357D+00 -0.47009607D+00 -0.77330362D+00 -0.10384170D+01
 -0.97770873D+00 -0.80344835D-01 -0.21498956D+00 -0.57126751D+00  0.77010851D-03
 -0.83251791D-04 -0.77903165D-04 -0.60339012D-04  0.35039796D-04  0.32788616D-04
  0.25396051D-04  0.12962104D-07  0.12129336D-07  0.93946396D-08 -0.18592201D-02
 -0.82885617D-04  0.11209589D-04  0.16544596D-08 -0.91152852D-04  0.21987991D-04
 -0.17577238D-05  0.18210238D-09 -0.48254207D-04 -0.14478406D-03  0.19303827D-03
 -0.14660477D-04  0.12634810D-08 -0.12978304D-09 -0.13196550D+00 -0.24566602D+00
 -0.40411830D+00 -0.54266305D+00 -0.51093772D+00 -0.41987154D-01 -0.11235095D+00
 -0.29853752D+00  0.40244943D-03  0.74888438D-03  0.70077127D-03  0.54277443D-03
 -0.57481213D-03 -0.53788253D-03 -0.41661081D-03 -0.32553186D-08 -0.30461762D-08
 -0.23593812D-08 -0.97095781D-03  0.93265652D-04 -0.11807892D-03  0.47582315D-10
 -0.47141156D-04  0.88689578D-05  0.80255204D-05  0.82565008D-10 -0.35359790D-04
 -0.65519857D-04  0.10087965D-03  0.65802806D-04 -0.11769145D-08 -0.79283566D-11
  0.12086526D+00  0.22500190D+00  0.37012600D+00  0.49701710D+00  0.46796034D+00
  0.38455416D-01  0.10290059D+00  0.27342614D+00 -0.36859753D-03  0.86085473D-03
  0.80554793D-03  0.62392801D-03  0.45113501D-03  0.42215122D-03  0.32697244D-03
 -0.36119128D-08 -0.33798605D-08 -0.26178326D-08  0.88927331D-03  0.11700860D-03
  0.99461887D-04 -0.17916695D-09  0.43143751D-04  0.70734690D-05 -0.84770353D-05
  0.66225961D-13  0.40751345D-04  0.51645203D-04 -0.92396549D-04  0.69724907D-04
  0.95469952D-09 -0.46757212D-09  0.13244733D-03  0.23891608D-03  0.35222528D-03
  0.37766924D-04  0.20244506D-04  0.69106418D-04  0.12465812D-03  0.18377892D-03
  0.19548485D-04  0.10533064D-04 -0.63295550D-04 -0.11417614D-03 -0.16832573D-03
 -0.17907715D-04 -0.96448281D-05 -0.13244842D-03 -0.23891805D-03 -0.35222818D-03
 -0.37769390D-04 -0.20245064D-04 -0.69106760D-04 -0.12465874D-03 -0.18377983D-03
 -0.19547421D-04 -0.10532978D-04  0.63297163D-04  0.11417905D-03  0.16833002D-03
  0.17908292D-04  0.96451690D-05
MO    4     MO 0.0        OCC NO =    2.0000007  ORB. ENERGY =    0.000000
 -0.63691677D-02 -0.11856797D-01 -0.19504319D-01 -0.26191027D-01 -0.24659839D-01
 -0.20264632D-02 -0.54224316D-02 -0.14408416D-01  0.19423551D-04  0.93997806D-04
  0.87958787D-04  0.68127481D-04  0.11009160D-02  0.10301861D-02  0.79791897D-03
 -0.73342828D-09 -0.68630817D-09 -0.53157220D-09 -0.47024043D-04  0.16052797D-04
  0.16780733D-03 -0.27422076D-09 -0.23988042D-05 -0.26400685D-06  0.32041786D-05
 -0.66457122D-10 -0.62125419D-05  0.13558489D-05  0.48566930D-05 -0.59548601D-04
  0.14850891D-10 -0.10385990D-08  0.21553518D+00  0.40123874D+00  0.66003396D+00
  0.88631483D+00  0.83449883D+00  0.68576324D-01  0.18349904D+00  0.48759130D+00
 -0.65730713D-03 -0.51561706D-03 -0.48249053D-03 -0.37370757D-03  0.26877579D-03
  0.25150791D-03  0.19480260D-03 -0.94166398D-08 -0.88116547D-08 -0.68249672D-08
  0.15866233D-02 -0.11298694D-03 -0.83820436D-05 -0.46673348D-09  0.77642560D-04
  0.93904524D-05  0.16444654D-04 -0.39875779D-10  0.11160277D-03  0.53153547D-04
 -0.16475632D-03 -0.67142161D-04  0.19004482D-09  0.13533892D-08  0.22202567D+00
  0.41332139D+00  0.67990979D+00  0.91300474D+00  0.85962838D+00  0.70641387D-01
  0.18902493D+00  0.50227465D+00 -0.67710131D-03  0.51011377D-03  0.47734080D-03
  0.36971890D-03  0.15699051D-03  0.14690443D-03  0.11378316D-03  0.12605983D-07
  0.11796094D-07  0.91365310D-08  0.16340811D-02  0.10425924D-03 -0.32151908D-04
  0.28751057D-08  0.79728168D-04 -0.69378111D-05  0.18292546D-04  0.22898414D-09
  0.12327941D-03  0.46455361D-04 -0.16973478D-03  0.48058671D-04 -0.58198298D-09
 -0.35847318D-09  0.63698839D-02  0.11858130D-01  0.19506512D-01  0.26193972D-01
  0.24662612D-01  0.20266910D-02  0.54230434D-02  0.14410042D-01 -0.19425743D-04
  0.93989048D-04  0.87950592D-04  0.68121133D-04  0.11009230D-02  0.10301927D-02
  0.79792404D-03  0.14199509D-08  0.13287242D-08  0.10291483D-08  0.47022678D-04
  0.16060911D-04  0.16780039D-03  0.74665402D-09  0.24040053D-05 -0.26118017D-06
  0.32037028D-05  0.15363758D-09  0.62131301D-05 -0.13520801D-05 -0.48610500D-05
  0.59543722D-04  0.36690270D-09  0.10702419D-08 -0.21553752D+00 -0.40124310D+00
 -0.66004113D+00 -0.88632446D+00 -0.83450789D+00 -0.68577069D-01 -0.18350103D+00
 -0.48759661D+00  0.65731429D-03 -0.51561128D-03 -0.48248512D-03 -0.37370338D-03
  0.26877495D-03  0.25150713D-03  0.19480200D-03 -0.70529333D-08 -0.65998078D-08
 -0.51118063D-08 -0.15866317D-02 -0.11297797D-03 -0.83953088D-05 -0.71505351D-09
 -0.77643594D-04  0.93902531D-05  0.16443377D-04 -0.54633055D-10 -0.11159509D-03
 -0.53165927D-04  0.16476101D-03  0.67152733D-04 -0.40636232D-09 -0.13926353D-08
 -0.22202341D+00 -0.41331718D+00 -0.67990287D+00 -0.91299545D+00 -0.85961963D+00
 -0.70640668D-01 -0.18902301D+00 -0.50226953D+00  0.67709441D-03  0.51010077D-03
  0.47732864D-03  0.36970948D-03  0.15699075D-03  0.14690466D-03  0.11378334D-03
  0.71545677D-08  0.66949126D-08  0.51854686D-08 -0.16340698D-02  0.10425044D-03
 -0.32157545D-04  0.56004351D-09 -0.79732279D-04 -0.69374715D-05  0.18290999D-04
  0.31934697D-10 -0.12327554D-03 -0.46458782D-04  0.16973432D-03 -0.48064582D-04
 -0.35354271D-09  0.16485999D-08 -0.33716367D-05 -0.60819515D-05 -0.89663997D-05
 -0.10069461D-05 -0.52376644D-06  0.11301379D-03  0.20386075D-03  0.30054447D-03
  0.32183946D-04  0.17264998D-04  0.11637068D-03  0.20991611D-03  0.30947167D-03
  0.33069342D-04  0.17760903D-04  0.33712421D-05  0.60812397D-05  0.89653503D-05
  0.10075701D-05  0.52387347D-06 -0.11301393D-03 -0.20386100D-03 -0.30054486D-03
 -0.32183394D-04 -0.17265165D-04 -0.11637009D-03 -0.20991505D-03 -0.30947011D-03
 -0.33070884D-04 -0.17760896D-04
MO    5     MO 0.0        OCC NO =    2.0000004  ORB. ENERGY =    0.000000
  0.25191219D+00  0.46895793D+00  0.77143139D+00  0.10359029D+01  0.97534162D+00
  0.80150314D-01  0.21479487D+00  0.57075018D+00 -0.76941112D-03 -0.67726933D-05
 -0.63375723D-05 -0.49086947D-05  0.34020233D-04  0.31834556D-04  0.24657094D-04
  0.18495030D-07  0.17306791D-07  0.13404779D-07  0.98953056D-03 -0.23942170D-03
  0.12834821D-04  0.61725642D-08 -0.17181111D-03  0.46183749D-04 -0.30598778D-05
  0.10704031D-08  0.28332151D-04  0.18453150D-03 -0.21286366D-03  0.27843762D-04
 -0.15071486D-08 -0.25303250D-09 -0.10466033D+00 -0.19483493D+00 -0.32050162D+00
 -0.43037989D+00 -0.40521889D+00 -0.33299534D-01 -0.89239422D-01 -0.23712585D+00
  0.31966222D-03  0.25926545D-03  0.24260858D-03  0.18790973D-03 -0.17514116D-03
 -0.16388898D-03 -0.12693835D-03  0.74562053D-08  0.69771711D-08  0.54040887D-08
 -0.41112088D-03  0.25074357D-05  0.11945879D-03  0.17635195D-08  0.71375930D-04
 -0.47942094D-05 -0.20073390D-04  0.36179709D-09 -0.49056275D-04 -0.39372679D-04
  0.88428954D-04  0.66708055D-04  0.22731106D-08 -0.23473144D-08 -0.14727176D+00
 -0.27416005D+00 -0.45099070D+00 -0.60560482D+00 -0.57019977D+00 -0.46857111D-01
 -0.12557239D+00 -0.33366934D+00  0.44980958D-03 -0.25530046D-03 -0.23889833D-03
 -0.18503599D-03 -0.11416810D-03 -0.10683322D-03 -0.82746455D-04 -0.14481214D-07
 -0.13550848D-07 -0.10495656D-07 -0.57848070D-03 -0.62784517D-05  0.15186756D-03
 -0.50577538D-08  0.10043270D-03  0.54635595D-05 -0.27333091D-04 -0.82601353D-09
 -0.86828669D-04 -0.37608608D-04  0.12443728D-03 -0.79665189D-04  0.25654930D-08
  0.20863768D-08  0.25191324D+00  0.46895988D+00  0.77143460D+00  0.10359072D+01
  0.97534567D+00  0.80150647D-01  0.21479576D+00  0.57075256D+00 -0.76941432D-03
  0.67720555D-05  0.63369755D-05  0.49082324D-05 -0.34000696D-04 -0.31816274D-04
 -0.24642934D-04 -0.24827940D-07 -0.23232835D-07 -0.17994728D-07  0.98953739D-03
  0.23941863D-03 -0.12862356D-04 -0.75285235D-08 -0.17181464D-03 -0.46185354D-04
  0.30607964D-05 -0.13105106D-08  0.28328826D-04  0.18453700D-03 -0.21286582D-03
  0.27813234D-04 -0.19881814D-08 -0.35056368D-09 -0.10466179D+00 -0.19483763D+00
 -0.32050607D+00 -0.43038587D+00 -0.40522452D+00 -0.33299996D-01 -0.89240662D-01
 -0.23712915D+00  0.31966666D-03 -0.25926416D-03 -0.24260738D-03 -0.18790879D-03
  0.17514262D-03  0.16389034D-03  0.12693940D-03 -0.10182230D-07 -0.95280588D-08
 -0.73798498D-08 -0.41112647D-03 -0.24998372D-05 -0.11947764D-03 -0.34505598D-08
  0.71379759D-04  0.47947756D-05  0.20074588D-04 -0.56405703D-09 -0.49053049D-04
 -0.39381405D-04  0.88434454D-04  0.66720246D-04  0.22131752D-08 -0.25954304D-08
 -0.14726992D+00 -0.27415662D+00 -0.45098506D+00 -0.60559725D+00 -0.57019264D+00
 -0.46856525D-01 -0.12557082D+00 -0.33366517D+00  0.44980396D-03  0.25529877D-03
  0.23889675D-03  0.18503477D-03  0.11417639D-03  0.10684097D-03  0.82752459D-04
  0.11067251D-07  0.10356220D-07  0.80212930D-08 -0.57847160D-03  0.62654639D-05
 -0.15187820D-03  0.34406056D-08  0.10043030D-03 -0.54632195D-05  0.27331829D-04
  0.63046427D-09 -0.86824596D-04 -0.37613834D-04  0.12443843D-03 -0.79677165D-04
  0.20283142D-08  0.21466670D-08  0.13407481D-04  0.24185183D-04  0.35655335D-04
 -0.12099500D-03 -0.80164191D-05 -0.55726170D-05 -0.10052206D-04 -0.14819601D-04
  0.50263267D-04  0.33300915D-05 -0.78465039D-05 -0.14153974D-04 -0.20866688D-04
  0.70718565D-04  0.46834664D-05  0.13408221D-04  0.24186518D-04  0.35657303D-04
 -0.12099457D-03 -0.80165626D-05 -0.55720056D-05 -0.10051103D-04 -0.14817975D-04
  0.50265701D-04  0.33309530D-05 -0.78460787D-05 -0.14153206D-04 -0.20865557D-04
  0.70717236D-04  0.46835686D-05
MO    6     MO 0.0        OCC NO =    2.0000004  ORB. ENERGY =    0.000000
 -0.24600339D-01 -0.45795814D-01 -0.75333683D-01 -0.10116049D+00 -0.95246417D-01
 -0.78270322D-02 -0.20975668D-01 -0.55736277D-01  0.75136396D-04  0.29329004D-04
  0.27444722D-04  0.21256998D-04  0.34062363D-03  0.31873979D-03  0.24687629D-03
 -0.38683830D-08 -0.36198533D-08 -0.28037163D-08 -0.96632131D-04  0.17280821D-04
 -0.74023078D-04 -0.14188227D-08  0.16782809D-04 -0.38263408D-05  0.85526811D-05
 -0.21749919D-09 -0.14695068D-05 -0.19310673D-04  0.20780179D-04  0.12842845D-04
 -0.25712065D-10 -0.35859421D-08  0.23046938D+00  0.42904014D+00  0.70576700D+00
  0.94772662D+00  0.89232034D+00  0.73327903D-01  0.19651149D+00  0.52216782D+00
 -0.70391869D-03  0.11162796D-03  0.10445627D-03  0.80905416D-04 -0.88153819D-04
 -0.82490255D-04 -0.63891891D-04 -0.23491881D-07 -0.21982613D-07 -0.17026383D-07
  0.90523253D-03 -0.14957866D-03 -0.16294946D-03 -0.69206163D-08 -0.15721739D-03
  0.26952050D-04  0.32854616D-04 -0.12076835D-08  0.12569927D-03  0.69009081D-04
 -0.19470836D-03 -0.13372813D-03  0.24540897D-08  0.73414667D-09 -0.20586691D+00
 -0.38324036D+00 -0.63042680D+00 -0.84655738D+00 -0.79706569D+00 -0.65500194D-01
 -0.17553400D+00 -0.46642670D+00  0.62877578D-03  0.17737740D-03  0.16598155D-03
  0.12855912D-03  0.92101381D-04  0.86184200D-04  0.66752994D-04 -0.19560161D-07
 -0.18303491D-07 -0.14176761D-07 -0.80862752D-03 -0.12155633D-03  0.15910233D-03
 -0.67302633D-08  0.14042600D-03  0.20458554D-04 -0.32187563D-04 -0.11112640D-08
 -0.13171257D-03 -0.42217303D-04  0.17392987D-03 -0.94256376D-04 -0.24392028D-08
 -0.16032846D-10 -0.24601834D-01 -0.45798598D-01 -0.75338263D-01 -0.10116664D+00
 -0.95252208D-01 -0.78275080D-02 -0.20976943D-01 -0.55739666D-01  0.75140964D-04
 -0.29321119D-04 -0.27437343D-04 -0.21251283D-04 -0.34061297D-03 -0.31872982D-03
 -0.24686857D-03 -0.63704968D-09 -0.59612154D-09 -0.46171917D-09 -0.96637628D-04
 -0.17289814D-04  0.74032310D-04 -0.59973894D-09  0.16785138D-04  0.38271741D-05
 -0.85527370D-05 -0.52585913D-10 -0.14681834D-05 -0.19317209D-04  0.20785393D-04
  0.12846919D-04 -0.39717076D-09 -0.35740267D-08  0.23046746D+00  0.42903657D+00
  0.70576112D+00  0.94771873D+00  0.89231291D+00  0.73327292D-01  0.19650985D+00
  0.52216347D+00 -0.70391284D-03 -0.11160141D-03 -0.10443142D-03 -0.80886174D-04
  0.88151844D-04  0.82488407D-04  0.63890460D-04  0.16495980D-07  0.15436172D-07
  0.11955912D-07  0.90522514D-03  0.14955985D-03  0.16296277D-03  0.51550608D-08
 -0.15721899D-03 -0.26951302D-04 -0.32855299D-04  0.90910358D-09  0.12568477D-03
  0.69022188D-04 -0.19470696D-03 -0.13373700D-03  0.20430037D-08  0.39247335D-09
 -0.20586968D+00 -0.38324553D+00 -0.63043529D+00 -0.84656879D+00 -0.79707642D+00
 -0.65501076D-01 -0.17553636D+00 -0.46643298D+00  0.62878424D-03 -0.17737842D-03
 -0.16598249D-03 -0.12855986D-03 -0.92096707D-04 -0.86179827D-04 -0.66749607D-04
  0.15260064D-07  0.14279660D-07  0.11060149D-07 -0.80864117D-03  0.12153096D-03
 -0.15910724D-03  0.46845456D-08  0.14042704D-03 -0.20459506D-04  0.32188465D-04
  0.86443621D-09 -0.13170380D-03 -0.42225877D-04  0.17392968D-03 -0.94268850D-04
 -0.23577702D-08  0.48781939D-09 -0.13149713D-05 -0.23720206D-05 -0.34969836D-05
  0.11810117D-04  0.78140477D-06  0.12274589D-04  0.22141607D-04  0.32642565D-04
 -0.11068706D-03 -0.73301566D-05 -0.10973132D-04 -0.19793965D-04 -0.29181522D-04
  0.98855843D-04  0.65467877D-05 -0.13147197D-05 -0.23715667D-05 -0.34963145D-05
  0.11811580D-04  0.78205772D-06  0.12273576D-04  0.22139779D-04  0.32639871D-04
 -0.11068797D-03 -0.73303864D-05 -0.10974695D-04 -0.19796784D-04 -0.29185677D-04
  0.98855228D-04  0.65463800D-05
MO    7     MO 0.0        OCC NO =    1.9847100  ORB. ENERGY =    0.000000
 -0.40339694D-01 -0.75096086D-01 -0.12353235D+00 -0.16588322D+00 -0.15618530D+00
 -0.12834786D-01 -0.66813501D-01 -0.17753598D+00  0.23933091D-03 -0.21522177D-01
 -0.20139455D-01 -0.15598786D-01  0.17912262D-02  0.16761464D-02  0.12982402D-02
  0.43089005D-06  0.40320692D-06  0.31229934D-06  0.86610644D-01 -0.48555196D-02
  0.40387244D-03  0.12766464D-06  0.16699879D-01  0.88749738D-03 -0.74181235D-04
  0.27334452D-07  0.42574464D-02  0.36986487D-02 -0.79560951D-02 -0.95087287D-04
 -0.60111027D-07  0.50663176D-08 -0.40337382D-01 -0.75091780D-01 -0.12352527D+00
 -0.16587371D+00 -0.15617635D+00 -0.12834050D-01 -0.66809751D-01 -0.17752602D+00
  0.23931747D-03 -0.12312320D-01 -0.11521298D-01 -0.89236907D-02 -0.17741688D-01
 -0.16601848D-01 -0.12858773D-01 -0.38121294D-06 -0.35672139D-06 -0.27629450D-06
  0.86606143D-01 -0.27782087D-02 -0.40034542D-02 -0.10565911D-06  0.16699569D-01
  0.50751950D-03  0.73141671D-03 -0.25730463D-07  0.38789324D-02  0.40770258D-02
 -0.79559581D-02  0.53002413D-03  0.46863560D-07  0.62282439D-07 -0.40338047D-01
 -0.75093019D-01 -0.12352731D+00 -0.16587645D+00 -0.15617893D+00 -0.12834262D-01
 -0.66810840D-01 -0.17752891D+00  0.23932137D-03  0.91963982D-02  0.86055629D-02
  0.66653411D-02 -0.19538745D-01 -0.18283451D-01 -0.14161239D-01  0.65966086D-06
  0.61728004D-06  0.47810725D-06  0.86607391D-01  0.20747758D-02 -0.44090798D-02