 Entering Gaussian System, Link 0=g09
 Initial command:
 /home/bcz/bin/g09/l1.exe /home/bcz/temp/Gau-11578.inp -scrdir=/home/bcz/temp/
 Entering Link 1 = /home/bcz/bin/g09/l1.exe PID=     11579.
  
 Copyright (c) 1988,1990,1992,1993,1995,1998,2003,2009, Gaussian, Inc.
                  All Rights Reserved.
  
 This is part of the Gaussian(R) 09 program.  It is based on
 the Gaussian(R) 03 system (copyright 2003, Gaussian, Inc.),
 the Gaussian(R) 98 system (copyright 1998, Gaussian, Inc.),
 the Gaussian(R) 94 system (copyright 1995, Gaussian, Inc.),
 the Gaussian 92(TM) system (copyright 1992, Gaussian, Inc.),
 the Gaussian 90(TM) system (copyright 1990, Gaussian, Inc.),
 the Gaussian 88(TM) system (copyright 1988, Gaussian, Inc.),
 the Gaussian 86(TM) system (copyright 1986, Carnegie Mellon
 University), and the Gaussian 82(TM) system (copyright 1983,
 Carnegie Mellon University). Gaussian is a federally registered
 trademark of Gaussian, Inc.
  
 This software contains proprietary and confidential information,
 including trade secrets, belonging to Gaussian, Inc.
  
 This software is provided under written license and may be
 used, copied, transmitted, or stored only in accord with that
 written license.
  
 The following legend is applicable only to US Government
 contracts under FAR:
  
                    RESTRICTED RIGHTS LEGEND
  
 Use, reproduction and disclosure by the US Government is
 subject to restrictions as set forth in subparagraphs (a)
 and (c) of the Commercial Computer Software - Restricted
 Rights clause in FAR 52.227-19.
  
 Gaussian, Inc.
 340 Quinnipiac St., Bldg. 40, Wallingford CT 06492
  
  
 ---------------------------------------------------------------
 Warning -- This program may not be used in any manner that
 competes with the business of Gaussian, Inc. or will provide
 assistance to any competitor of Gaussian, Inc.  The licensee
 of this program is prohibited from giving any competitor of
 Gaussian, Inc. access to this program.  By using this program,
 the user acknowledges that Gaussian, Inc. is engaged in the
 business of creating and licensing software in the field of
 computational chemistry and represents and warrants to the
 licensee that it is not a competitor of Gaussian, Inc. and that
 it will not use this program in any manner prohibited above.
 ---------------------------------------------------------------
  

 Cite this work as:
 Gaussian 09, Revision A.02,
 M. J. Frisch, G. W. Trucks, H. B. Schlegel, G. E. Scuseria, 
 M. A. Robb, J. R. Cheeseman, G. Scalmani, V. Barone, B. Mennucci, 
 G. A. Petersson, H. Nakatsuji, M. Caricato, X. Li, H. P. Hratchian, 
 A. F. Izmaylov, J. Bloino, G. Zheng, J. L. Sonnenberg, M. Hada, 
 M. Ehara, K. Toyota, R. Fukuda, J. Hasegawa, M. Ishida, T. Nakajima, 
 Y. Honda, O. Kitao, H. Nakai, T. Vreven, J. A. Montgomery, Jr., 
 J. E. Peralta, F. Ogliaro, M. Bearpark, J. J. Heyd, E. Brothers, 
 K. N. Kudin, V. N. Staroverov, R. Kobayashi, J. Normand, 
 K. Raghavachari, A. Rendell, J. C. Burant, S. S. Iyengar, J. Tomasi, 
 M. Cossi, N. Rega, J. M. Millam, M. Klene, J. E. Knox, J. B. Cross, 
 V. Bakken, C. Adamo, J. Jaramillo, R. Gomperts, R. E. Stratmann, 
 O. Yazyev, A. J. Austin, R. Cammi, C. Pomelli, J. W. Ochterski, 
 R. L. Martin, K. Morokuma, V. G. Zakrzewski, G. A. Voth, 
 P. Salvador, J. J. Dannenberg, S. Dapprich, A. D. Daniels, 
 O. Farkas, J. B. Foresman, J. V. Ortiz, J. Cioslowski, 
 and D. J. Fox, Gaussian, Inc., Wallingford CT, 2009.
 
 ******************************************
 Gaussian 09:  AM64L-G09RevA.02 11-Jun-2009
                27-Mar-2019 
 ******************************************
 %NProcShared=8
 Will use up to    8 processors via shared memory.
 %Chk=gdb_214_chk
 ---------------------
 #T B3LYP/6-311++G opt
 ---------------------
 -----------
 gdb_214_opt
 -----------
 Symbolic Z-matrix:
 Charge =  0 Multiplicity = 1
 C                    -0.0264    1.3835    0.0104 
 C                     1.1708    2.0966    0.0023 
 C                     2.3869    1.4164   -0.0131 
 C                     2.4057    0.0231   -0.0205 
 C                     1.2086   -0.69     -0.0124 
 C                    -0.0075   -0.0098    0.003 
 H                    -0.9733    1.9132    0.0224 
 H                     1.156     3.1816    0.008 
 H                     3.3191    1.9717   -0.0195 
 H                     3.3527   -0.5066   -0.0325 
 H                     1.2233   -1.775    -0.0181 
 H                    -0.9398   -0.5651    0.0093 
 

 GradGradGradGradGradGradGradGradGradGradGradGradGradGradGradGradGradGrad
 Initialization pass.
                           ----------------------------
                           !    Initial Parameters    !
                           ! (Angstroms and Degrees)  !
 --------------------------                            --------------------------
 ! Name  Definition              Value          Derivative Info.                !
 --------------------------------------------------------------------------------
 ! R1    R(1,2)                  1.3935         estimate D2E/DX2                !
 ! R2    R(1,6)                  1.3934         estimate D2E/DX2                !
 ! R3    R(1,7)                  1.0851         estimate D2E/DX2                !
 ! R4    R(2,3)                  1.3935         estimate D2E/DX2                !
 ! R5    R(2,8)                  1.0851         estimate D2E/DX2                !
 ! R6    R(3,4)                  1.3934         estimate D2E/DX2                !
 ! R7    R(3,9)                  1.0851         estimate D2E/DX2                !
 ! R8    R(4,5)                  1.3934         estimate D2E/DX2                !
 ! R9    R(4,10)                 1.0851         estimate D2E/DX2                !
 ! R10   R(5,6)                  1.3935         estimate D2E/DX2                !
 ! R11   R(5,11)                 1.0851         estimate D2E/DX2                !
 ! R12   R(6,12)                 1.0852         estimate D2E/DX2                !
 ! A1    A(2,1,6)              119.9995         estimate D2E/DX2                !
 ! A2    A(2,1,7)              119.9991         estimate D2E/DX2                !
 ! A3    A(6,1,7)              120.0014         estimate D2E/DX2                !
 ! A4    A(1,2,3)              120.0024         estimate D2E/DX2                !
 ! A5    A(1,2,8)              119.9952         estimate D2E/DX2                !
 ! A6    A(3,2,8)              120.0024         estimate D2E/DX2                !
 ! A7    A(2,3,4)              119.994          estimate D2E/DX2                !
 ! A8    A(2,3,9)              120.0004         estimate D2E/DX2                !
 ! A9    A(4,3,9)              120.0056         estimate D2E/DX2                !
 ! A10   A(3,4,5)              120.0057         estimate D2E/DX2                !
 ! A11   A(3,4,10)             119.9947         estimate D2E/DX2                !
 ! A12   A(5,4,10)             119.9996         estimate D2E/DX2                !
 ! A13   A(4,5,6)              120.0003         estimate D2E/DX2                !
 ! A14   A(4,5,11)             120.0026         estimate D2E/DX2                !
 ! A15   A(6,5,11)             119.9971         estimate D2E/DX2                !
 ! A16   A(1,6,5)              119.9981         estimate D2E/DX2                !
 ! A17   A(1,6,12)             119.9988         estimate D2E/DX2                !
 ! A18   A(5,6,12)             120.0031         estimate D2E/DX2                !
 ! D1    D(6,1,2,3)             -0.0047         estimate D2E/DX2                !
 ! D2    D(6,1,2,8)            179.9961         estimate D2E/DX2                !
 ! D3    D(7,1,2,3)            179.9995         estimate D2E/DX2                !
 ! D4    D(7,1,2,8)              0.0004         estimate D2E/DX2                !
 ! D5    D(2,1,6,5)              0.0047         estimate D2E/DX2                !
 ! D6    D(2,1,6,12)          -179.9995         estimate D2E/DX2                !
 ! D7    D(7,1,6,5)           -179.9995         estimate D2E/DX2                !
 ! D8    D(7,1,6,12)            -0.0037         estimate D2E/DX2                !
 ! D9    D(1,2,3,4)              0.0048         estimate D2E/DX2                !
 ! D10   D(1,2,3,9)            179.9943         estimate D2E/DX2                !
 ! D11   D(8,2,3,4)           -179.9961         estimate D2E/DX2                !
 ! D12   D(8,2,3,9)             -0.0066         estimate D2E/DX2                !
 ! D13   D(2,3,4,5)             -0.0048         estimate D2E/DX2                !
 ! D14   D(2,3,4,10)           179.9995         estimate D2E/DX2                !
 ! D15   D(9,3,4,5)           -179.9944         estimate D2E/DX2                !
 ! D16   D(9,3,4,10)             0.01           estimate D2E/DX2                !
 ! D17   D(3,4,5,6)              0.0048         estimate D2E/DX2                !
 ! D18   D(3,4,5,11)          -179.9961         estimate D2E/DX2                !
 ! D19   D(10,4,5,6)          -179.9995         estimate D2E/DX2                !
 ! D20   D(10,4,5,11)           -0.0005         estimate D2E/DX2                !
 ! D21   D(4,5,6,1)             -0.0048         estimate D2E/DX2                !
 ! D22   D(4,5,6,12)           179.9995         estimate D2E/DX2                !
 ! D23   D(11,5,6,1)           179.9962         estimate D2E/DX2                !
 ! D24   D(11,5,6,12)            0.0005         estimate D2E/DX2                !
 --------------------------------------------------------------------------------
 Number of steps in this run=  64 maximum allowed number of steps= 100.
 GradGradGradGradGradGradGradGradGradGradGradGradGradGradGradGradGradGrad

                    Distance matrix (angstroms):
                    1          2          3          4          5
     1  C    0.000000
     2  C    1.393508   0.000000
     3  C    2.413639   1.393488   0.000000
     4  C    2.786890   2.413483   1.393446   0.000000
     5  C    2.413534   2.786895   2.413568   1.393422   0.000000
     6  C    1.393448   2.413568   2.787016   2.413539   1.393488
     7  H    1.085056   2.152023   3.396912   3.871945   3.396844
     8  H    2.152031   1.085116   2.152090   3.396864   3.872011
     9  H    3.396946   2.152038   1.085079   2.152055   3.396897
    10  H    3.872032   3.396844   2.151993   1.085143   2.152023
    11  H    3.396864   3.872010   3.396914   2.152031   1.085115
    12  H    2.152055   3.396959   3.872180   3.396945   2.152137
                    6          7          8          9         10
     6  C    0.000000
     7  H    2.151993   0.000000
     8  H    3.396880   2.478500   0.000000
     9  H    3.872095   4.293003   2.478632   0.000000
    10  H    3.396912   4.957088   4.293012   2.478562   0.000000
    11  H    2.152033   4.292961   4.957126   4.293034   2.478586
    12  H    1.085164   2.478561   4.293034   4.957259   4.293102
                   11         12
    11  H    0.000000
    12  H    2.478631   0.000000
 Framework group  C1[X(C6H6)]
 Deg. of freedom    30
                         Standard orientation:                         
 ---------------------------------------------------------------------
 Center     Atomic      Atomic             Coordinates (Angstroms)
 Number     Number       Type             X           Y           Z
 ---------------------------------------------------------------------
      1          6           0        0.842829    1.109686   -0.000019
      2          6           0       -0.539644    1.284710    0.000004
      3          6           0       -1.382490    0.175017   -0.000029
      4          6           0       -0.842772   -1.109661    0.000015
      5          6           0        0.539609   -1.284725   -0.000009
      6          6           0        1.382455   -0.175032    0.000024
      7          1           0        1.499071    1.973799   -0.000002
      8          1           0       -0.959791    2.285186    0.000033
      9          1           0       -2.458972    0.311339    0.000082
     10          1           0       -1.499106   -1.973815   -0.000003
     11          1           0        0.959848   -2.285162   -0.000037
     12          1           0        2.459028   -0.311315    0.000014
 ---------------------------------------------------------------------
 Rotational constants (GHZ):      5.7121670      5.7117632      2.8559825
   126 basis functions,   216 primitive gaussians,   126 cartesian basis functions
    21 alpha electrons       21 beta electrons
       nuclear repulsion energy       203.6303230233 Hartrees.
 NAtoms=   12 NActive=   12 NUniq=   12 SFac= 7.50D-01 NAtFMM=   80 NAOKFM=F Big=F
 Harris functional with IExCor=  402 diagonalized for initial guess.
 ExpMin= 3.60D-02 ExpMax= 4.56D+03 ExpMxC= 6.82D+02 IAcc=3 IRadAn=         0 AccDes= 0.00D+00
 HarFok:  IExCor=  402 AccDes= 0.00D+00 IRadAn=         0 IDoV= 1
 ScaDFX=  1.000000  1.000000  1.000000  1.000000
 FoFCou: FMM=F IPFlag=           0 FMFlag=      100000 FMFlg1=           0
         NFxFlg=           0 DoJE=T BraDBF=F KetDBF=T FulRan=T
         Omega=  0.000000  0.000000  1.000000  0.000000  0.000000 ICntrl=     500 IOpCl=  0
         NMat0=    1 NMatS0=    1 NMatT0=    0 NMatD0=    1 NMtDS0=    0 NMtDT0=    0
         I1Cent=           4 NGrid=           0.
 Petite list used in FoFCou.
 Initial guess orbital symmetries:
       Occupied  (A) (A) (A) (A) (A) (A) (A) (A) (A) (A) (A) (A)
                 (A) (A) (A) (A) (A) (A) (A) (A) (A)
       Virtual   (A) (A) (A) (A) (A) (A) (A) (A) (A) (A) (A) (A)
                 (A) (A) (A) (A) (A) (A) (A) (A) (A) (A) (A) (A)
                 (A) (A) (A) (A) (A) (A) (A) (A) (A) (A) (A) (A)
                 (A) (A) (A) (A) (A) (A) (A) (A) (A) (A) (A) (A)
                 (A) (A) (A) (A) (A) (A) (A) (A) (A) (A) (A) (A)
                 (A) (A) (A) (A) (A) (A) (A) (A) (A) (A) (A) (A)
                 (A) (A) (A) (A) (A) (A) (A) (A) (A) (A) (A) (A)
                 (A) (A) (A) (A) (A) (A) (A) (A) (A) (A) (A) (A)
                 (A) (A) (A) (A) (A) (A) (A) (A) (A)
 The electronic state of the initial guess is 1-A.
 PrsmSu:  requested number of processors reduced to:   1 ShMem   1 Linda.
 CalDSu:  requested number of processors reduced to:   1 ShMem   1 Linda.
 CalDSu:  requested number of processors reduced to:   1 ShMem   1 Linda.
 CalDSu:  requested number of processors reduced to:   1 ShMem   1 Linda.
 CalDSu:  requested number of processors reduced to:   1 ShMem   1 Linda.
 CalDSu:  requested number of processors reduced to:   1 ShMem   1 Linda.
 CalDSu:  requested number of processors reduced to:   1 ShMem   1 Linda.
 CalDSu:  requested number of processors reduced to:   1 ShMem   1 Linda.
 CalDSu:  requested number of processors reduced to:   1 ShMem   1 Linda.
 CalDSu:  requested number of processors reduced to:   1 ShMem   1 Linda.
 CalDSu:  requested number of processors reduced to:   1 ShMem   1 Linda.
 SCF Done:  E(RB3LYP) =  -232.250668714     A.U. after   10 cycles
             Convg  =    0.5163D-08             -V/T =  2.0036

 **********************************************************************

            Population analysis using the SCF density.

 **********************************************************************

 Orbital symmetries:
       Occupied  (A) (A) (A) (A) (A) (A) (A) (A) (A) (A) (A) (A)
                 (A) (A) (A) (A) (A) (A) (A) (A) (A)
       Virtual   (A) (A) (A) (A) (A) (A) (A) (A) (A) (A) (A) (A)
                 (A) (A) (A) (A) (A) (A) (A) (A) (A) (A) (A) (A)
                 (A) (A) (A) (A) (A) (A) (A) (A) (A) (A) (A) (A)
                 (A) (A) (A) (A) (A) (A) (A) (A) (A) (A) (A) (A)
                 (A) (A) (A) (A) (A) (A) (A) (A) (A) (A) (A) (A)
                 (A) (A) (A) (A) (A) (A) (A) (A) (A) (A) (A) (A)
                 (A) (A) (A) (A) (A) (A) (A) (A) (A) (A) (A) (A)
                 (A) (A) (A) (A) (A) (A) (A) (A) (A) (A) (A) (A)
                 (A) (A) (A) (A) (A) (A) (A) (A) (A)
 The electronic state is 1-A.
 Alpha  occ. eigenvalues --  -10.18301 -10.18276 -10.18275 -10.18219 -10.18219
 Alpha  occ. eigenvalues --  -10.18193  -0.86758  -0.75713  -0.75712  -0.61264
 Alpha  occ. eigenvalues --   -0.61263  -0.53567  -0.46743  -0.45972  -0.43354
 Alpha  occ. eigenvalues --   -0.43353  -0.37586  -0.35304  -0.35303  -0.26151
 Alpha  occ. eigenvalues --   -0.26150
 Alpha virt. eigenvalues --   -0.01354  -0.01351  -0.00665   0.01016   0.01019
 Alpha virt. eigenvalues --    0.03277   0.03278   0.06019   0.06352   0.07415
 Alpha virt. eigenvalues --    0.09070   0.09089   0.10127   0.11331   0.12025
 Alpha virt. eigenvalues --    0.12029   0.12175   0.12177   0.12798   0.14026
 Alpha virt. eigenvalues --    0.14037   0.14705   0.14737   0.15272   0.15579
 Alpha virt. eigenvalues --    0.15581   0.19937   0.20053   0.20054   0.22170
 Alpha virt. eigenvalues --    0.22204   0.24032   0.26659   0.28092   0.28419
 Alpha virt. eigenvalues --    0.28430   0.29800   0.29802   0.31971   0.35529
 Alpha virt. eigenvalues --    0.35534   0.36347   0.36354   0.46177   0.48153
 Alpha virt. eigenvalues --    0.52750   0.53705   0.55169   0.55738   0.55740
 Alpha virt. eigenvalues --    0.56766   0.56770   0.58350   0.58352   0.61809
 Alpha virt. eigenvalues --    0.61922   0.61922   0.67460   0.73566   0.73569
 Alpha virt. eigenvalues --    0.75113   0.75116   0.80535   0.80923   0.84806
 Alpha virt. eigenvalues --    0.84811   0.87627   0.88959   0.89735   0.89740
 Alpha virt. eigenvalues --    0.93518   0.93522   1.03856   1.03860   1.34192
 Alpha virt. eigenvalues --    2.38950   2.44558   2.44561   2.52763   2.52765
 Alpha virt. eigenvalues --    2.62515   2.64506   2.64508   2.64772   2.74338
 Alpha virt. eigenvalues --    2.74341   2.78562   2.78563   2.90263   2.90265
 Alpha virt. eigenvalues --    2.94764   3.04421   3.04529   3.13941   3.21362
 Alpha virt. eigenvalues --    3.21364   3.29283   3.29285   3.49862  23.18853
 Alpha virt. eigenvalues --   23.42956  23.42959  23.62828  23.62831  23.89835
          Condensed to atoms (all electrons):
 Mulliken atomic charges:
              1
     1  C   -0.273699
     2  C   -0.273533
     3  C   -0.274416
     4  C   -0.273119
     5  C   -0.274203
     6  C   -0.273742
     7  H    0.273768
     8  H    0.273795
     9  H    0.273766
    10  H    0.273790
    11  H    0.273798
    12  H    0.273795
 Sum of Mulliken atomic charges =   0.00000
 Mulliken charges with hydrogens summed into heavy atoms:
              1
     1  C    0.000069
     2  C    0.000262
     3  C   -0.000650
     4  C    0.000671
     5  C   -0.000405
     6  C    0.000053
 Sum of Mulliken charges with hydrogens summed into heavy atoms =   0.00000
 Electronic spatial extent (au):  <R**2>=            459.5826
 Charge=              0.0000 electrons
 Dipole moment (field-independent basis, Debye):
    X=              0.0000    Y=              0.0001    Z=              0.0001  Tot=              0.0001
 Calling FoFJK, ICntrl=      2127 FMM=F ISym2X=0 I1Cent= 0 IOpClX= 0 NMat=1 NMatS=1 NMatT=0.

 GradGradGradGradGradGradGradGradGradGradGradGradGradGradGradGradGradGrad
 Internal  Forces:  Max     0.005233568 RMS     0.001820207
 Step number   1 out of a maximum of   64
 All quantities printed in internal units (Hartrees-Bohrs-Radians)
 Mixed Optimization -- RFO/linear search
 Second derivative matrix not updated -- first step.
     Eigenvalues ---    0.02175   0.02175   0.02175   0.02175   0.02175
     Eigenvalues ---    0.02175   0.02175   0.02175   0.02176   0.16000
     Eigenvalues ---    0.16000   0.16000   0.16000   0.16000   0.16000
     Eigenvalues ---    0.22000   0.22000   0.22000   0.35378   0.35380
     Eigenvalues ---    0.35383   0.35383   0.35388   0.35390   0.42322
     Eigenvalues ---    0.42326   0.46717   0.46717   0.46724   0.46725
     Eigenvalues --- 1000.000001000.000001000.000001000.000001000.00000
     Eigenvalues --- 1000.000001000.000001000.000001000.000001000.00000
     Eigenvalues --- 1000.000001000.000001000.000001000.000001000.00000
     Eigenvalues --- 1000.000001000.000001000.000001000.000001000.00000
     Eigenvalues --- 1000.000001000.000001000.000001000.00000
 Linear search not attempted -- first point.
 Iteration  1 RMS(Cart)=  0.00424826 RMS(Int)=  0.00000028
 Iteration  2 RMS(Cart)=  0.00000028 RMS(Int)=  0.00000002
 Variable       Old X    -DE/DX   Delta X   Delta X   Delta X     New X
                                 (Linear)    (Quad)   (Total)
    R1        2.63335   0.00514   0.00000   0.01099   0.01099   2.64434
    R2        2.63323   0.00523   0.00000   0.01117   0.01117   2.64441
    R3        2.05046  -0.00166   0.00000  -0.00469  -0.00469   2.04576
    R4        2.63331   0.00516   0.00000   0.01103   0.01103   2.64434
    R5        2.05057  -0.00171   0.00000  -0.00484  -0.00484   2.04573
    R6        2.63323   0.00523   0.00000   0.01119   0.01119   2.64443
    R7        2.05050  -0.00169   0.00000  -0.00477  -0.00477   2.04573
    R8        2.63319   0.00519   0.00000   0.01111   0.01111   2.64430
    R9        2.05062  -0.00172   0.00000  -0.00485  -0.00485   2.04578
   R10        2.63331   0.00517   0.00000   0.01105   0.01105   2.64436
   R11        2.05057  -0.00172   0.00000  -0.00484  -0.00484   2.04573
   R12        2.05066  -0.00174   0.00000  -0.00492  -0.00492   2.04574
    A1        2.09439   0.00003   0.00000   0.00011   0.00011   2.09450
    A2        2.09438  -0.00001   0.00000  -0.00003  -0.00003   2.09435
    A3        2.09442  -0.00002   0.00000  -0.00008  -0.00008   2.09434
    A4        2.09444  -0.00003   0.00000  -0.00014  -0.00014   2.09430
    A5        2.09431   0.00001   0.00000   0.00005   0.00005   2.09436
    A6        2.09444   0.00002   0.00000   0.00009   0.00009   2.09453
    A7        2.09429   0.00002   0.00000   0.00009   0.00009   2.09438
    A8        2.09440   0.00000   0.00000   0.00003   0.00003   2.09444
    A9        2.09449  -0.00002   0.00000  -0.00012  -0.00012   2.09437
   A10        2.09449   0.00000   0.00000   0.00002   0.00002   2.09451
   A11        2.09430   0.00000   0.00000   0.00000   0.00000   2.09430
   A12        2.09439   0.00000   0.00000  -0.00002  -0.00002   2.09437
   A13        2.09440  -0.00003   0.00000  -0.00011  -0.00011   2.09429
   A14        2.09444   0.00000   0.00000  -0.00004  -0.00004   2.09440
   A15        2.09435   0.00003   0.00000   0.00015   0.00015   2.09450
   A16        2.09436   0.00001   0.00000   0.00003   0.00003   2.09439
   A17        2.09437  -0.00001   0.00000  -0.00003  -0.00003   2.09435
   A18        2.09445   0.00000   0.00000  -0.00001  -0.00001   2.09444
    D1       -0.00008   0.00000   0.00000   0.00012   0.00012   0.00004
    D2        3.14153   0.00000   0.00000   0.00009   0.00009  -3.14157
    D3        3.14158   0.00000   0.00000   0.00002   0.00002  -3.14158
    D4        0.00001   0.00000   0.00000   0.00000   0.00000   0.00000
    D5        0.00008   0.00000   0.00000  -0.00011  -0.00011  -0.00003
    D6       -3.14158   0.00000   0.00000  -0.00001  -0.00001   3.14159
    D7       -3.14158   0.00000   0.00000  -0.00001  -0.00001   3.14159
    D8       -0.00007   0.00000   0.00000   0.00008   0.00008   0.00002
    D9        0.00008   0.00000   0.00000  -0.00013  -0.00013  -0.00004
   D10        3.14149   0.00000   0.00000   0.00009   0.00009   3.14158
   D11       -3.14152   0.00000   0.00000  -0.00010  -0.00010   3.14156
   D12       -0.00011   0.00000   0.00000   0.00011   0.00011   0.00000
   D13       -0.00008   0.00000   0.00000   0.00013   0.00013   0.00004
   D14        3.14158   0.00000   0.00000   0.00004   0.00004  -3.14156
   D15       -3.14149   0.00000   0.00000  -0.00009  -0.00009  -3.14158
   D16        0.00017   0.00000   0.00000  -0.00018  -0.00018   0.00000
   D17        0.00008   0.00000   0.00000  -0.00012  -0.00012  -0.00004
   D18       -3.14153   0.00000   0.00000  -0.00009  -0.00009   3.14157
   D19       -3.14158   0.00000   0.00000  -0.00003  -0.00003   3.14157
   D20       -0.00001   0.00000   0.00000   0.00001   0.00001   0.00000
   D21       -0.00008   0.00000   0.00000   0.00011   0.00011   0.00003
   D22        3.14158   0.00000   0.00000   0.00001   0.00001  -3.14159
   D23        3.14153   0.00000   0.00000   0.00008   0.00008  -3.14158
   D24        0.00001   0.00000   0.00000  -0.00002  -0.00002  -0.00001
         Item               Value     Threshold  Converged?
 Maximum Force            0.005234     0.000450     NO 
 RMS     Force            0.001820     0.000300     NO 
 Maximum Displacement     0.011265     0.001800     NO 
 RMS     Displacement     0.004248     0.001200     NO 
 GradGradGradGradGradGradGradGradGradGradGradGradGradGradGradGradGradGrad

                    Distance matrix (angstroms):
                    1          2          3          4          5
     1  C    0.000000
     2  C    1.399323   0.000000
     3  C    2.423632   1.399327   0.000000
     4  C    2.798537   2.423733   1.399370   0.000000
     5  C    2.423743   2.798813   2.423805   1.399302   0.000000
     6  C    1.399361   2.423802   2.798669   2.423616   1.399336
     7  H    1.082572   2.155184   3.404475   3.881109   3.404558
     8  H    2.155176   1.082554   2.155281   3.404613   3.881367
     9  H    3.404491   2.155225   1.082555   2.155223   3.404588
    10  H    3.881115   3.404541   2.155201   1.082578   2.155181
    11  H    3.404604   3.881365   3.404609   2.155180   1.082552
    12  H    2.155206   3.404587   3.881228   3.404481   2.155242
                    6          7          8          9         10
     6  C    0.000000
     7  H    2.155210   0.000000
     8  H    3.404594   2.481813   0.000000
     9  H    3.881224   4.298739   2.482044   0.000000
    10  H    3.404476   4.963687   4.298821   2.481823   0.000000
    11  H    2.155268   4.298819   4.963919   4.298766   2.481849
    12  H    1.082559   2.481828   4.298746   4.963783   4.298750
                   11         12
    11  H    0.000000
    12  H    2.482032   0.000000
 Framework group  C1[X(C6H6)]
 Deg. of freedom    30
                         Standard orientation:                         
 ---------------------------------------------------------------------
 Center     Atomic      Atomic             Coordinates (Angstroms)
 Number     Number       Type             X           Y           Z
 ---------------------------------------------------------------------
      1          6           0        0.545299    1.288647   -0.000006
      2          6           0        1.388780    0.172116    0.000007
      3          6           0        0.843447   -1.116576   -0.000013
      4          6           0       -0.545305   -1.288636    0.000009
      5          6           0       -1.388782   -0.172127   -0.000005
      6          6           0       -0.843442    1.116572    0.000004
      7          1           0        0.967134    2.285651   -0.000001
      8          1           0        2.463101    0.305379    0.000024
      9          1           0        1.495867   -1.980447   -0.000013
     10          1           0       -0.967118   -2.285656    0.000020
     11          1           0       -2.463105   -0.305354   -0.000006
     12          1           0       -1.495857    1.980453   -0.000001
 ---------------------------------------------------------------------
 Rotational constants (GHZ):      5.6713442      5.6705538      2.8354745
   126 basis functions,   216 primitive gaussians,   126 cartesian basis functions
    21 alpha electrons       21 beta electrons
       nuclear repulsion energy       202.9768852075 Hartrees.
 NAtoms=   12 NActive=   12 NUniq=   12 SFac= 7.50D-01 NAtFMM=   80 NAOKFM=F Big=F
 Initial guess read from the read-write file.
 B after Tr=     0.000000    0.000000    0.000000
         Rot=    1.000000    0.000000    0.000000    0.000000 Ang=   0.00 deg.
 Initial guess orbital symmetries:
       Occupied  (A) (A) (A) (A) (A) (A) (A) (A) (A) (A) (A) (A)
                 (A) (A) (A) (A) (A) (A) (A) (A) (A)
       Virtual   (A) (A) (A) (A) (A) (A) (A) (A) (A) (A) (A) (A)
                 (A) (A) (A) (A) (A) (A) (A) (A) (A) (A) (A) (A)
                 (A) (A) (A) (A) (A) (A) (A) (A) (A) (A) (A) (A)
                 (A) (A) (A) (A) (A) (A) (A) (A) (A) (A) (A) (A)
                 (A) (A) (A) (A) (A) (A) (A) (A) (A) (A) (A) (A)
                 (A) (A) (A) (A) (A) (A) (A) (A) (A) (A) (A) (A)
                 (A) (A) (A) (A) (A) (A) (A) (A) (A) (A) (A) (A)
                 (A) (A) (A) (A) (A) (A) (A) (A) (A) (A) (A) (A)
                 (A) (A) (A) (A) (A) (A) (A) (A) (A)
 PrsmSu:  requested number of processors reduced to:   1 ShMem   1 Linda.
 CalDSu:  requested number of processors reduced to:   1 ShMem   1 Linda.
 CalDSu:  requested number of processors reduced to:   1 ShMem   1 Linda.
 CalDSu:  requested number of processors reduced to:   1 ShMem   1 Linda.
 CalDSu:  requested number of processors reduced to:   1 ShMem   1 Linda.
 CalDSu:  requested number of processors reduced to:   1 ShMem   1 Linda.
 CalDSu:  requested number of processors reduced to:   1 ShMem   1 Linda.
 CalDSu:  requested number of processors reduced to:   1 ShMem   1 Linda.
 CalDSu:  requested number of processors reduced to:   1 ShMem   1 Linda.
 CalDSu:  requested number of processors reduced to:   1 ShMem   1 Linda.
 CalDSu:  requested number of processors reduced to:   1 ShMem   1 Linda.
 CalDSu:  requested number of processors reduced to:   1 ShMem   1 Linda.
 CalDSu:  requested number of processors reduced to:   1 ShMem   1 Linda.
 CalDSu:  requested number of processors reduced to:   1 ShMem   1 Linda.
 SCF Done:  E(RB3LYP) =  -232.250852323     A.U. after   13 cycles
             Convg  =    0.9930D-08             -V/T =  2.0039
 Calling FoFJK, ICntrl=      2127 FMM=F ISym2X=0 I1Cent= 0 IOpClX= 0 NMat=1 NMatS=1 NMatT=0.

 GradGradGradGradGradGradGradGradGradGradGradGradGradGradGradGradGradGrad
 Using GEDIIS/GDIIS optimizer.
 Internal  Forces:  Max     0.000464101 RMS     0.000141847
 Step number   2 out of a maximum of   64
 All quantities printed in internal units (Hartrees-Bohrs-Radians)
 Mixed Optimization -- En-DIIS/RFO-DIIS
 Trust test= 9.30D-01 RLast= 2.96D-02 DXMaxT set to 3.00D-01
 Use linear search instead of GDIIS.
     Eigenvalues ---    0.02175   0.02175   0.02175   0.02175   0.02175
     Eigenvalues ---    0.02175   0.02175   0.02175   0.02176   0.16000
     Eigenvalues ---    0.16000   0.16000   0.16000   0.16000   0.16000
     Eigenvalues ---    0.21999   0.22000   0.22001   0.34731   0.35379
     Eigenvalues ---    0.35381   0.35383   0.35386   0.35390   0.42353
     Eigenvalues ---    0.42355   0.46707   0.46717   0.46723   0.50713
     Eigenvalues --- 1000.000001000.000001000.000001000.000001000.00000
     Eigenvalues --- 1000.000001000.000001000.000001000.000001000.00000
     Eigenvalues --- 1000.000001000.000001000.000001000.000001000.00000
     Eigenvalues --- 1000.000001000.000001000.000001000.000001000.00000
     Eigenvalues --- 1000.000001000.000001000.000001000.00000
 Quartic linear search produced a step of -0.06114.
 Iteration  1 RMS(Cart)=  0.00045095 RMS(Int)=  0.00000002
 Iteration  2 RMS(Cart)=  0.00000002 RMS(Int)=  0.00000000
 Variable       Old X    -DE/DX   Delta X   Delta X   Delta X     New X
                                 (Linear)    (Quad)   (Total)
    R1        2.64434  -0.00040  -0.00067  -0.00013  -0.00080   2.64353
    R2        2.64441  -0.00046  -0.00068  -0.00023  -0.00092   2.64349
    R3        2.04576  -0.00009   0.00029  -0.00053  -0.00024   2.04552
    R4        2.64434  -0.00038  -0.00067  -0.00008  -0.00075   2.64359
    R5        2.04573  -0.00008   0.00030  -0.00051  -0.00021   2.04552
    R6        2.64443  -0.00046  -0.00068  -0.00024  -0.00092   2.64350
    R7        2.04573  -0.00007   0.00029  -0.00048  -0.00018   2.04555
    R8        2.64430  -0.00039  -0.00068  -0.00010  -0.00078   2.64352
    R9        2.04578  -0.00009   0.00030  -0.00055  -0.00025   2.04552
   R10        2.64436  -0.00038  -0.00068  -0.00009  -0.00076   2.64360
   R11        2.04573  -0.00008   0.00030  -0.00050  -0.00021   2.04552
   R12        2.04574  -0.00007   0.00030  -0.00049  -0.00019   2.04555
    A1        2.09450  -0.00004  -0.00001  -0.00016  -0.00017   2.09433
    A2        2.09435   0.00003   0.00000   0.00015   0.00015   2.09450
    A3        2.09434   0.00001   0.00000   0.00002   0.00002   2.09436
    A4        2.09430   0.00002   0.00001   0.00008   0.00009   2.09439
    A5        2.09436   0.00001   0.00000   0.00005   0.00005   2.09441
    A6        2.09453  -0.00003  -0.00001  -0.00013  -0.00014   2.09439
    A7        2.09438   0.00002  -0.00001   0.00010   0.00009   2.09447
    A8        2.09444  -0.00002   0.00000  -0.00007  -0.00008   2.09436
    A9        2.09437  -0.00001   0.00001  -0.00002  -0.00001   2.09435
   A10        2.09451  -0.00004   0.00000  -0.00018  -0.00019   2.09433
   A11        2.09430   0.00001   0.00000   0.00004   0.00004   2.09434
   A12        2.09437   0.00003   0.00000   0.00014   0.00014   2.09451
   A13        2.09429   0.00002   0.00001   0.00009   0.00010   2.09438
   A14        2.09440   0.00000   0.00000   0.00002   0.00002   2.09443
   A15        2.09450  -0.00002  -0.00001  -0.00011  -0.00012   2.09437
   A16        2.09439   0.00002   0.00000   0.00008   0.00008   2.09447
   A17        2.09435   0.00000   0.00000   0.00000   0.00001   2.09435
   A18        2.09444  -0.00002   0.00000  -0.00008  -0.00008   2.09436
    D1        0.00004   0.00000  -0.00001  -0.00004  -0.00005  -0.00002
    D2       -3.14157   0.00000  -0.00001  -0.00003  -0.00003   3.14159
    D3       -3.14158   0.00000   0.00000  -0.00002  -0.00002   3.14159
    D4        0.00000   0.00000   0.00000   0.00000   0.00000   0.00000
    D5       -0.00003   0.00000   0.00001   0.00003   0.00004   0.00001
    D6        3.14159   0.00000   0.00000   0.00001   0.00001  -3.14159
    D7        3.14159   0.00000   0.00000   0.00001   0.00001  -3.14159
    D8        0.00002   0.00000  -0.00001  -0.00002  -0.00002   0.00000
    D9       -0.00004   0.00000   0.00001   0.00005   0.00006   0.00002
   D10        3.14158   0.00000  -0.00001   0.00002   0.00001   3.14159
   D11        3.14156   0.00000   0.00001   0.00004   0.00004  -3.14159
   D12        0.00000   0.00000  -0.00001   0.00000  -0.00001  -0.00001
   D13        0.00004   0.00000  -0.00001  -0.00005  -0.00006  -0.00002
   D14       -3.14156   0.00000   0.00000  -0.00003  -0.00003   3.14159
   D15       -3.14158   0.00000   0.00001  -0.00002  -0.00001  -3.14159
   D16        0.00000   0.00000   0.00001   0.00000   0.00002   0.00001
   D17       -0.00004   0.00000   0.00001   0.00004   0.00005   0.00002
   D18        3.14157   0.00000   0.00001   0.00002   0.00003  -3.14159
   D19        3.14157   0.00000   0.00000   0.00002   0.00002  -3.14159
   D20        0.00000   0.00000   0.00000   0.00000   0.00000   0.00000
   D21        0.00003   0.00000  -0.00001  -0.00003  -0.00004  -0.00001
   D22       -3.14159   0.00000   0.00000  -0.00001  -0.00001   3.14159
   D23       -3.14158   0.00000   0.00000  -0.00001  -0.00002   3.14159
   D24       -0.00001   0.00000   0.00000   0.00001   0.00001   0.00000
         Item               Value     Threshold  Converged?
 Maximum Force            0.000464     0.000450     NO 
 RMS     Force            0.000142     0.000300     YES
 Maximum Displacement     0.001163     0.001800     YES
 RMS     Displacement     0.000451     0.001200     YES
 GradGradGradGradGradGradGradGradGradGradGradGradGradGradGradGradGradGrad

                    Distance matrix (angstroms):
                    1          2          3          4          5
     1  C    0.000000
     2  C    1.398897   0.000000
     3  C    2.422980   1.398927   0.000000
     4  C    2.797898   2.423027   1.398882   0.000000
     5  C    2.423029   2.797802   2.422893   1.398888   0.000000
     6  C    1.398876   2.422893   2.797703   2.422977   1.398933
     7  H    1.082443   2.154786   3.403754   3.880342   3.403732
     8  H    2.154731   1.082444   2.154744   3.403735   3.880246
     9  H    3.403708   2.154739   1.082457   2.154694   3.403634
    10  H    3.880343   3.403726   2.154678   1.082445   2.154785
    11  H    3.403729   3.880245   3.403647   2.154732   1.082443
    12  H    2.154689   3.403636   3.880161   3.403704   2.154744
                    6          7          8          9         10
     6  C    0.000000
     7  H    2.154680   0.000000
     8  H    3.403642   2.481456   0.000000
     9  H    3.880160   4.297883   2.481338   0.000000
    10  H    3.403758   4.962786   4.297803   2.481246   0.000000
    11  H    2.154741   4.297802   4.962689   4.297783   2.481471
    12  H    1.082458   2.481253   4.297778   4.962619   4.297887
                   11         12
    11  H    0.000000
    12  H    2.481330   0.000000
 Framework group  C1[X(C6H6)]
 Deg. of freedom    30
                         Standard orientation:                         
 ---------------------------------------------------------------------
 Center     Atomic      Atomic             Coordinates (Angstroms)
 Number     Number       Type             X           Y           Z
 ---------------------------------------------------------------------
      1          6           0        1.394101   -0.116378   -0.000003
      2          6           0        0.797836    1.149079    0.000003
      3          6           0       -0.596246    1.265416   -0.000004
      4          6           0       -1.394100    0.116373    0.000003
      5          6           0       -0.797840   -1.149076   -0.000003
      6          6           0        0.596248   -1.265414    0.000003
      7          1           0        2.472784   -0.206520   -0.000003
      8          1           0        1.415134    2.038251    0.000004
      9          1           0       -1.057607    2.244630    0.000001
     10          1           0       -2.472783    0.206528    0.000003
     11          1           0       -1.415126   -2.038256   -0.000004
     12          1           0        1.057607   -2.244630    0.000005
 ---------------------------------------------------------------------
 Rotational constants (GHZ):      5.6745752      5.6739633      2.8371346
   126 basis functions,   216 primitive gaussians,   126 cartesian basis functions
    21 alpha electrons       21 beta electrons
       nuclear repulsion energy       203.0337825604 Hartrees.
 NAtoms=   12 NActive=   12 NUniq=   12 SFac= 7.50D-01 NAtFMM=   80 NAOKFM=F Big=F
 Initial guess read from the read-write file.
 B after Tr=     0.000000    0.000000    0.000000
         Rot=    1.000000    0.000000    0.000000    0.000000 Ang=   0.00 deg.
 Initial guess orbital symmetries:
       Occupied  (A) (A) (A) (A) (A) (A) (A) (A) (A) (A) (A) (A)
                 (A) (A) (A) (A) (A) (A) (A) (A) (A)
       Virtual   (A) (A) (A) (A) (A) (A) (A) (A) (A) (A) (A) (A)
                 (A) (A) (A) (A) (A) (A) (A) (A) (A) (A) (A) (A)
                 (A) (A) (A) (A) (A) (A) (A) (A) (A) (A) (A) (A)
                 (A) (A) (A) (A) (A) (A) (A) (A) (A) (A) (A) (A)
                 (A) (A) (A) (A) (A) (A) (A) (A) (A) (A) (A) (A)
                 (A) (A) (A) (A) (A) (A) (A) (A) (A) (A) (A) (A)
                 (A) (A) (A) (A) (A) (A) (A) (A) (A) (A) (A) (A)
                 (A) (A) (A) (A) (A) (A) (A) (A) (A) (A) (A) (A)
                 (A) (A) (A) (A) (A) (A) (A) (A) (A)
 PrsmSu:  requested number of processors reduced to:   1 ShMem   1 Linda.
 CalDSu:  requested number of processors reduced to:   1 ShMem   1 Linda.
 CalDSu:  requested number of processors reduced to:   1 ShMem   1 Linda.
 CalDSu:  requested number of processors reduced to:   1 ShMem   1 Linda.
 CalDSu:  requested number of processors reduced to:   1 ShMem   1 Linda.
 CalDSu:  requested number of processors reduced to:   1 ShMem   1 Linda.
 CalDSu:  requested number of processors reduced to:   1 ShMem   1 Linda.
 CalDSu:  requested number of processors reduced to:   1 ShMem   1 Linda.
 CalDSu:  requested number of processors reduced to:   1 ShMem   1 Linda.
 CalDSu:  requested number of processors reduced to:   1 ShMem   1 Linda.
 CalDSu:  requested number of processors reduced to:   1 ShMem   1 Linda.
 CalDSu:  requested number of processors reduced to:   1 ShMem   1 Linda.
 CalDSu:  requested number of processors reduced to:   1 ShMem   1 Linda.
 CalDSu:  requested number of processors reduced to:   1 ShMem   1 Linda.
 CalDSu:  requested number of processors reduced to:   1 ShMem   1 Linda.
 SCF Done:  E(RB3LYP) =  -232.250855887     A.U. after   14 cycles
             Convg  =    0.3822D-08             -V/T =  2.0039
 Calling FoFJK, ICntrl=      2127 FMM=F ISym2X=0 I1Cent= 0 IOpClX= 0 NMat=1 NMatS=1 NMatT=0.

 GradGradGradGradGradGradGradGradGradGradGradGradGradGradGradGradGradGrad
 Using GEDIIS/GDIIS optimizer.
 Internal  Forces:  Max     0.000065297 RMS     0.000016686
 Step number   3 out of a maximum of   64
 All quantities printed in internal units (Hartrees-Bohrs-Radians)
 Mixed Optimization -- En-DIIS/RFO-DIIS
 Swaping is turned off.
 Trust test= 3.26D+00 RLast= 2.14D-03 DXMaxT set to 3.00D-01
     Eigenvalues ---    0.02175   0.02175   0.02175   0.02175   0.02175
     Eigenvalues ---    0.02175   0.02175   0.02176   0.02176   0.15960
     Eigenvalues ---    0.16000   0.16000   0.16000   0.16000   0.16048
     Eigenvalues ---    0.21995   0.22000   0.22296   0.34825   0.35378
     Eigenvalues ---    0.35382   0.35383   0.35387   0.35412   0.42350
     Eigenvalues ---    0.42353   0.43543   0.46713   0.46721   0.53605
     Eigenvalues --- 1000.000001000.000001000.000001000.000001000.00000
     Eigenvalues --- 1000.000001000.000001000.000001000.000001000.00000
     Eigenvalues --- 1000.000001000.000001000.000001000.000001000.00000
     Eigenvalues --- 1000.000001000.000001000.000001000.000001000.00000
     Eigenvalues --- 1000.000001000.000001000.000001000.00000
 En-DIIS/RFO-DIIS IScMMF=        0 using points:     3    2
 RFO step:  Lambda=-2.44038880D-08.
 DIIS coeffs:      0.99162      0.00838
 Iteration  1 RMS(Cart)=  0.00007192 RMS(Int)=  0.00000000
 Iteration  2 RMS(Cart)=  0.00000000 RMS(Int)=  0.00000000
 Variable       Old X    -DE/DX   Delta X   Delta X   Delta X     New X
                                  (DIIS)     (GDIIS)  (Total)
    R1        2.64353   0.00003   0.00001   0.00004   0.00005   2.64358
    R2        2.64349   0.00002   0.00001   0.00002   0.00003   2.64352
    R3        2.04552   0.00000   0.00000   0.00001   0.00001   2.04553
    R4        2.64359  -0.00006   0.00001  -0.00015  -0.00015   2.64344
    R5        2.04552   0.00001   0.00000   0.00002   0.00003   2.04555
    R6        2.64350   0.00002   0.00001   0.00002   0.00002   2.64353
    R7        2.04555  -0.00001   0.00000  -0.00002  -0.00002   2.04553
    R8        2.64352   0.00004   0.00001   0.00005   0.00006   2.64358
    R9        2.04552   0.00000   0.00000   0.00000   0.00001   2.04553
   R10        2.64360  -0.00007   0.00001  -0.00016  -0.00015   2.64345
   R11        2.04552   0.00001   0.00000   0.00002   0.00003   2.04555
   R12        2.04555  -0.00001   0.00000  -0.00003  -0.00002   2.04553
    A1        2.09433   0.00002   0.00000   0.00010   0.00010   2.09443
    A2        2.09450  -0.00002   0.00000  -0.00009  -0.00009   2.09441
    A3        2.09436  -0.00001   0.00000  -0.00001  -0.00001   2.09435
    A4        2.09439  -0.00001   0.00000  -0.00004  -0.00004   2.09435
    A5        2.09441   0.00000   0.00000  -0.00001  -0.00001   2.09440
    A6        2.09439   0.00001   0.00000   0.00005   0.00005   2.09443
    A7        2.09447  -0.00001   0.00000  -0.00006  -0.00006   2.09441
    A8        2.09436   0.00000   0.00000  -0.00003  -0.00003   2.09433
    A9        2.09435   0.00002   0.00000   0.00010   0.00010   2.09445
   A10        2.09433   0.00002   0.00000   0.00010   0.00010   2.09443
   A11        2.09434   0.00000   0.00000   0.00000   0.00000   2.09434
   A12        2.09451  -0.00002   0.00000  -0.00010  -0.00010   2.09441
   A13        2.09438  -0.00001   0.00000  -0.00004  -0.00004   2.09435
   A14        2.09443   0.00000   0.00000  -0.00002  -0.00002   2.09441
   A15        2.09437   0.00001   0.00000   0.00005   0.00006   2.09443
   A16        2.09447  -0.00002   0.00000  -0.00007  -0.00007   2.09441
   A17        2.09435   0.00002   0.00000   0.00010   0.00010   2.09445
   A18        2.09436   0.00000   0.00000  -0.00004  -0.00003   2.09432
    D1       -0.00002   0.00000   0.00000   0.00002   0.00002   0.00001
    D2        3.14159   0.00000   0.00000   0.00001   0.00001  -3.14159
    D3        3.14159   0.00000   0.00000   0.00001   0.00001  -3.14159
    D4        0.00000   0.00000   0.00000  -0.00001  -0.00001   0.00000
    D5        0.00001   0.00000   0.00000  -0.00002  -0.00002   0.00000
    D6       -3.14159   0.00000   0.00000  -0.00001  -0.00001   3.14159
    D7       -3.14159   0.00000   0.00000  -0.00001  -0.00001   3.14159
    D8        0.00000   0.00000   0.00000   0.00000   0.00000   0.00000
    D9        0.00002   0.00000   0.00000  -0.00002  -0.00002  -0.00001
   D10        3.14159   0.00000   0.00000   0.00000   0.00000   3.14159
   D11       -3.14159   0.00000   0.00000  -0.00001  -0.00001   3.14159
   D12       -0.00001   0.00000   0.00000   0.00001   0.00001   0.00000
   D13       -0.00002   0.00000   0.00000   0.00002   0.00002   0.00001
   D14        3.14159   0.00000   0.00000   0.00001   0.00001  -3.14159
   D15       -3.14159   0.00000   0.00000   0.00000   0.00000  -3.14159
   D16        0.00001   0.00000   0.00000  -0.00001  -0.00001   0.00000
   D17        0.00002   0.00000   0.00000  -0.00002  -0.00002  -0.00001
   D18       -3.14159   0.00000   0.00000  -0.00001  -0.00001   3.14159
   D19       -3.14159   0.00000   0.00000  -0.00001  -0.00001   3.14159
   D20        0.00000   0.00000   0.00000   0.00001   0.00001   0.00000
   D21       -0.00001   0.00000   0.00000   0.00002   0.00002   0.00000
   D22        3.14159   0.00000   0.00000   0.00001   0.00001  -3.14159
   D23        3.14159   0.00000   0.00000   0.00001   0.00001  -3.14159
   D24        0.00000   0.00000   0.00000   0.00000   0.00000   0.00000
         Item               Value     Threshold  Converged?
 Maximum Force            0.000065     0.000450     YES
 RMS     Force            0.000017     0.000300     YES
 Maximum Displacement     0.000201     0.001800     YES
 RMS     Displacement     0.000072     0.001200     YES
 Optimization completed.
    -- Stationary point found.
                           ----------------------------
                           !   Optimized Parameters   !
                           ! (Angstroms and Degrees)  !
 --------------------------                            --------------------------
 ! Name  Definition              Value          Derivative Info.                !
 --------------------------------------------------------------------------------
 ! R1    R(1,2)                  1.3989         -DE/DX =    0.0                 !
 ! R2    R(1,6)                  1.3989         -DE/DX =    0.0                 !
 ! R3    R(1,7)                  1.0824         -DE/DX =    0.0                 !
 ! R4    R(2,3)                  1.3989         -DE/DX =   -0.0001              !
 ! R5    R(2,8)                  1.0824         -DE/DX =    0.0                 !
 ! R6    R(3,4)                  1.3989         -DE/DX =    0.0                 !
 ! R7    R(3,9)                  1.0825         -DE/DX =    0.0                 !
 ! R8    R(4,5)                  1.3989         -DE/DX =    0.0                 !
 ! R9    R(4,10)                 1.0824         -DE/DX =    0.0                 !
 ! R10   R(5,6)                  1.3989         -DE/DX =   -0.0001              !
 ! R11   R(5,11)                 1.0824         -DE/DX =    0.0                 !
 ! R12   R(6,12)                 1.0825         -DE/DX =    0.0                 !
 ! A1    A(2,1,6)              119.996          -DE/DX =    0.0                 !
 ! A2    A(2,1,7)              120.0061         -DE/DX =    0.0                 !
 ! A3    A(6,1,7)              119.9979         -DE/DX =    0.0                 !
 ! A4    A(1,2,3)              119.9995         -DE/DX =    0.0                 !
 ! A5    A(1,2,8)              120.001          -DE/DX =    0.0                 !
 ! A6    A(3,2,8)              119.9996         -DE/DX =    0.0                 !
 ! A7    A(2,3,4)              120.0044         -DE/DX =    0.0                 !
 ! A8    A(2,3,9)              119.998          -DE/DX =    0.0                 !
 ! A9    A(4,3,9)              119.9976         -DE/DX =    0.0                 !
 ! A10   A(3,4,5)              119.9962         -DE/DX =    0.0                 !
 ! A11   A(3,4,10)             119.9971         -DE/DX =    0.0                 !
 ! A12   A(5,4,10)             120.0067         -DE/DX =    0.0                 !
 ! A13   A(4,5,6)              119.9994         -DE/DX =    0.0                 !
 ! A14   A(4,5,11)             120.0018         -DE/DX =    0.0                 !
 ! A15   A(6,5,11)             119.9988         -DE/DX =    0.0                 !
 ! A16   A(1,6,5)              120.0045         -DE/DX =    0.0                 !
 ! A17   A(1,6,12)             119.9976         -DE/DX =    0.0                 !
 ! A18   A(5,6,12)             119.9979         -DE/DX =    0.0                 !
 ! D1    D(6,1,2,3)             -0.0009         -DE/DX =    0.0                 !
 ! D2    D(6,1,2,8)           -180.0003         -DE/DX =    0.0                 !
 ! D3    D(7,1,2,3)           -180.0003         -DE/DX =    0.0                 !
 ! D4    D(7,1,2,8)              0.0002         -DE/DX =    0.0                 !
 ! D5    D(2,1,6,5)              0.0008         -DE/DX =    0.0                 !
 ! D6    D(2,1,6,12)           180.0004         -DE/DX =    0.0                 !
 ! D7    D(7,1,6,5)            180.0002         -DE/DX =    0.0                 !
 ! D8    D(7,1,6,12)            -0.0002         -DE/DX =    0.0                 !
 ! D9    D(1,2,3,4)              0.0009         -DE/DX =    0.0                 !
 ! D10   D(1,2,3,9)            180.0            -DE/DX =    0.0                 !
 ! D11   D(8,2,3,4)            180.0004         -DE/DX =    0.0                 !
 ! D12   D(8,2,3,9)             -0.0005         -DE/DX =    0.0                 !
 ! D13   D(2,3,4,5)             -0.0009         -DE/DX =    0.0                 !
 ! D14   D(2,3,4,10)          -180.0003         -DE/DX =    0.0                 !
 ! D15   D(9,3,4,5)           -180.0            -DE/DX =    0.0                 !
 ! D16   D(9,3,4,10)             0.0006         -DE/DX =    0.0                 !
 ! D17   D(3,4,5,6)              0.0009         -DE/DX =    0.0                 !
 ! D18   D(3,4,5,11)           180.0004         -DE/DX =    0.0                 !
 ! D19   D(10,4,5,6)           180.0002         -DE/DX =    0.0                 !
 ! D20   D(10,4,5,11)           -0.0002         -DE/DX =    0.0                 !
 ! D21   D(4,5,6,1)             -0.0008         -DE/DX =    0.0                 !
 ! D22   D(4,5,6,12)          -180.0004         -DE/DX =    0.0                 !
 ! D23   D(11,5,6,1)          -180.0003         -DE/DX =    0.0                 !
 ! D24   D(11,5,6,12)            0.0001         -DE/DX =    0.0                 !
 --------------------------------------------------------------------------------
 GradGradGradGradGradGradGradGradGradGradGradGradGradGradGradGradGradGrad

                    Distance matrix (angstroms):
                    1          2          3          4          5
     1  C    0.000000
     2  C    1.398897   0.000000
     3  C    2.422980   1.398927   0.000000
     4  C    2.797898   2.423027   1.398882   0.000000
     5  C    2.423029   2.797802   2.422893   1.398888   0.000000
     6  C    1.398876   2.422893   2.797703   2.422977   1.398933
     7  H    1.082443   2.154786   3.403754   3.880342   3.403732
     8  H    2.154731   1.082444   2.154744   3.403735   3.880246
     9  H    3.403708   2.154739   1.082457   2.154694   3.403634
    10  H    3.880343   3.403726   2.154678   1.082445   2.154785
    11  H    3.403729   3.880245   3.403647   2.154732   1.082443
    12  H    2.154689   3.403636   3.880161   3.403704   2.154744
                    6          7          8          9         10
     6  C    0.000000
     7  H    2.154680   0.000000
     8  H    3.403642   2.481456   0.000000
     9  H    3.880160   4.297883   2.481338   0.000000
    10  H    3.403758   4.962786   4.297803   2.481246   0.000000
    11  H    2.154741   4.297802   4.962689   4.297783   2.481471
    12  H    1.082458   2.481253   4.297778   4.962619   4.297887
                   11         12
    11  H    0.000000
    12  H    2.481330   0.000000
 Framework group  C1[X(C6H6)]
 Deg. of freedom    30
                         Standard orientation:                         
 ---------------------------------------------------------------------
 Center     Atomic      Atomic             Coordinates (Angstroms)
 Number     Number       Type             X           Y           Z
 ---------------------------------------------------------------------
      1          6           0        1.394101   -0.116378   -0.000003
      2          6           0        0.797836    1.149079    0.000003
      3          6           0       -0.596246    1.265416   -0.000004
      4          6           0       -1.394100    0.116373    0.000003
      5          6           0       -0.797840   -1.149076   -0.000003
      6          6           0        0.596248   -1.265414    0.000003
      7          1           0        2.472784   -0.206520   -0.000003
      8          1           0        1.415134    2.038251    0.000004
      9          1           0       -1.057607    2.244630    0.000001
     10          1           0       -2.472783    0.206528    0.000003
     11          1           0       -1.415126   -2.038256   -0.000004
     12          1           0        1.057607   -2.244630    0.000005
 ---------------------------------------------------------------------
 Rotational constants (GHZ):      5.6745752      5.6739633      2.8371346

 **********************************************************************

            Population analysis using the SCF density.

 **********************************************************************

 Orbital symmetries:
       Occupied  (A) (A) (A) (A) (A) (A) (A) (A) (A) (A) (A) (A)
                 (A) (A) (A) (A) (A) (A) (A) (A) (A)
       Virtual   (A) (A) (A) (A) (A) (A) (A) (A) (A) (A) (A) (A)
                 (A) (A) (A) (A) (A) (A) (A) (A) (A) (A) (A) (A)
                 (A) (A) (A) (A) (A) (A) (A) (A) (A) (A) (A) (A)
                 (A) (A) (A) (A) (A) (A) (A) (A) (A) (A) (A) (A)
                 (A) (A) (A) (A) (A) (A) (A) (A) (A) (A) (A) (A)
                 (A) (A) (A) (A) (A) (A) (A) (A) (A) (A) (A) (A)
                 (A) (A) (A) (A) (A) (A) (A) (A) (A) (A) (A) (A)
                 (A) (A) (A) (A) (A) (A) (A) (A) (A) (A) (A) (A)
                 (A) (A) (A) (A) (A) (A) (A) (A) (A)
 The electronic state is 1-A.
 Alpha  occ. eigenvalues --  -10.18406 -10.18382 -10.18382 -10.18327 -10.18327
 Alpha  occ. eigenvalues --  -10.18303  -0.86476  -0.75597  -0.75595  -0.61248
 Alpha  occ. eigenvalues --   -0.61247  -0.53499  -0.46958  -0.45810  -0.43352
 Alpha  occ. eigenvalues --   -0.43349  -0.37399  -0.35359  -0.35359  -0.26076
 Alpha  occ. eigenvalues --   -0.26074
 Alpha virt. eigenvalues --   -0.01467  -0.01466  -0.00643   0.01021   0.01023
 Alpha virt. eigenvalues --    0.03265   0.03267   0.06011   0.06384   0.07467
 Alpha virt. eigenvalues --    0.09078   0.09100   0.10124   0.11381   0.12050
 Alpha virt. eigenvalues --    0.12055   0.12146   0.12148   0.12620   0.14007
 Alpha virt. eigenvalues --    0.14019   0.14707   0.14740   0.15256   0.15570
 Alpha virt. eigenvalues --    0.15573   0.19819   0.20012   0.20014   0.22155
 Alpha virt. eigenvalues --    0.22189   0.24040   0.26641   0.28068   0.28398
 Alpha virt. eigenvalues --    0.28408   0.29579   0.29581   0.31933   0.35493
 Alpha virt. eigenvalues --    0.35496   0.36138   0.36145   0.46273   0.48080
 Alpha virt. eigenvalues --    0.52796   0.53251   0.54686   0.55784   0.55787
 Alpha virt. eigenvalues --    0.56695   0.56697   0.58413   0.58416   0.61787
 Alpha virt. eigenvalues --    0.61897   0.61899   0.67391   0.73424   0.73428
 Alpha virt. eigenvalues --    0.75036   0.75037   0.80227   0.81069   0.84791
 Alpha virt. eigenvalues --    0.84795   0.87208   0.88850   0.89689   0.89694
 Alpha virt. eigenvalues --    0.93460   0.93465   1.03816   1.03821   1.34018
 Alpha virt. eigenvalues --    2.39029   2.44390   2.44392   2.52630   2.52632
 Alpha virt. eigenvalues --    2.62312   2.64453   2.64454   2.64696   2.74770
 Alpha virt. eigenvalues --    2.74774   2.78568   2.78568   2.90321   2.90324
 Alpha virt. eigenvalues --    2.94679   3.03592   3.04943   3.13882   3.20876
 Alpha virt. eigenvalues --    3.20880   3.28576   3.28580   3.50091  23.19086
 Alpha virt. eigenvalues --   23.42986  23.42988  23.62384  23.62389  23.88648
          Condensed to atoms (all electrons):
 Mulliken atomic charges:
              1
     1  C   -0.273543
     2  C   -0.272695
     3  C   -0.273144
     4  C   -0.273548
     5  C   -0.272701
     6  C   -0.273142
     7  H    0.273110
     8  H    0.273158
     9  H    0.273118
    10  H    0.273109
    11  H    0.273159
    12  H    0.273118
 Sum of Mulliken atomic charges =   0.00000
 Mulliken charges with hydrogens summed into heavy atoms:
              1
     1  C   -0.000433
     2  C    0.000463
     3  C   -0.000025
     4  C   -0.000439
     5  C    0.000458
     6  C   -0.000024
 Sum of Mulliken charges with hydrogens summed into heavy atoms =   0.00000
 Electronic spatial extent (au):  <R**2>=            461.8154
 Charge=              0.0000 electrons
 Dipole moment (field-independent basis, Debye):
    X=              0.0000    Y=              0.0000    Z=              0.0000  Tot=              0.0000
 1\1\GINC-ATENEA\FOpt\RB3LYP\6-311++G\C6H6\BCZ\27-Mar-2019\0\\#T B3LYP/
 6-311++G opt\\gdb_214_opt\\0,1\C,-0.0311663642,1.386209437,0.010438470
 8\C,1.1706719447,2.1020517676,0.0023125561\C,2.3914753777,1.4191190313
 ,-0.0131738845\C,2.4105138761,0.0203862519,-0.0205545932\C,1.208683737
 8,-0.6954532393,-0.0124285914\C,-0.0121249541,-0.0125176199,0.00305925
 22\H,-0.9758445884,1.9145304277,0.0224264236\H,1.1560312776,3.18438145
 83,0.0080162301\H,3.3214358713,1.9730575943,-0.0194616062\H,3.35519912
 33,-0.5079244496,-0.0325424786\H,1.223309991,-1.7777825261,-0.01813221
 57\H,-0.9420852926,-0.5664581331,0.0093404368\\Version=AM64L-G09RevA.0
 2\State=1-A\HF=-232.2508559\RMSD=3.822e-09\RMSF=2.369e-05\Dipole=-0.00
 0001,0.0000013,-0.0000019\Quadrupole=2.0727338,2.0726147,-4.1453485,-0
 .0000304,-0.0610524,0.0319457\PG=C01 [X(C6H6)]\\@


 THE CHYMISTS ARE A STRANGE CLASS OF MORTALS IMPELLED
 BY AN ALMOST INSANE IMPULSE TO SEEK THEIR PLEASURE
 AMONG SMOKE AND VAPOR, SOOT AND FLAME, POISONS AND
 POVERTY; YET AMONG ALL THESE EVILS I SEEM TO LIVE
 SO SWEETLY, THAT I MAY DIE IF I WOULD CHANGE PLACES
 WITH THE PERSIAN KING.
   --  JOHANN JOACHIM BECHER, 1635-1682
 ACTA LABORATORII CHYMICA MONACENSIS, 1669
 Job cpu time:  0 days  0 hours 12 minutes 30.7 seconds.
 File lengths (MBytes):  RWF=     10 Int=      0 D2E=      0 Chk=      2 Scr=      1
 Normal termination of Gaussian 09 at Wed Mar 27 15:13:37 2019.
 Initial command:
 /home/bcz/bin/g09/l1.exe /home/bcz/temp/Gau-11578.inp -scrdir=/home/bcz/temp/
 Entering Link 1 = /home/bcz/bin/g09/l1.exe PID=     11861.
  
 Copyright (c) 1988,1990,1992,1993,1995,1998,2003,2009, Gaussian, Inc.
                  All Rights Reserved.
  
 This is part of the Gaussian(R) 09 program.  It is based on
 the Gaussian(R) 03 system (copyright 2003, Gaussian, Inc.),
 the Gaussian(R) 98 system (copyright 1998, Gaussian, Inc.),
 the Gaussian(R) 94 system (copyright 1995, Gaussian, Inc.),
 the Gaussian 92(TM) system (copyright 1992, Gaussian, Inc.),
 the Gaussian 90(TM) system (copyright 1990, Gaussian, Inc.),
 the Gaussian 88(TM) system (copyright 1988, Gaussian, Inc.),
 the Gaussian 86(TM) system (copyright 1986, Carnegie Mellon
 University), and the Gaussian 82(TM) system (copyright 1983,
 Carnegie Mellon University). Gaussian is a federally registered
 trademark of Gaussian, Inc.
  
 This software contains proprietary and confidential information,
 including trade secrets, belonging to Gaussian, Inc.
  
 This software is provided under written license and may be
 used, copied, transmitted, or stored only in accord with that
 written license.
  
 The following legend is applicable only to US Government
 contracts under FAR:
  
                    RESTRICTED RIGHTS LEGEND
  
 Use, reproduction and disclosure by the US Government is
 subject to restrictions as set forth in subparagraphs (a)
 and (c) of the Commercial Computer Software - Restricted
 Rights clause in FAR 52.227-19.
  
 Gaussian, Inc.
 340 Quinnipiac St., Bldg. 40, Wallingford CT 06492
  
  
 ---------------------------------------------------------------
 Warning -- This program may not be used in any manner that
 competes with the business of Gaussian, Inc. or will provide
 assistance to any competitor of Gaussian, Inc.  The licensee
 of this program is prohibited from giving any competitor of
 Gaussian, Inc. access to this program.  By using this program,
 the user acknowledges that Gaussian, Inc. is engaged in the
 business of creating and licensing software in the field of
 computational chemistry and represents and warrants to the
 licensee that it is not a competitor of Gaussian, Inc. and that
 it will not use this program in any manner prohibited above.
 ---------------------------------------------------------------
  

 Cite this work as:
 Gaussian 09, Revision A.02,
 M. J. Frisch, G. W. Trucks, H. B. Schlegel, G. E. Scuseria, 
 M. A. Robb, J. R. Cheeseman, G. Scalmani, V. Barone, B. Mennucci, 
 G. A. Petersson, H. Nakatsuji, M. Caricato, X. Li, H. P. Hratchian, 
 A. F. Izmaylov, J. Bloino, G. Zheng, J. L. Sonnenberg, M. Hada, 
 M. Ehara, K. Toyota, R. Fukuda, J. Hasegawa, M. Ishida, T. Nakajima, 
 Y. Honda, O. Kitao, H. Nakai, T. Vreven, J. A. Montgomery, Jr., 
 J. E. Peralta, F. Ogliaro, M. Bearpark, J. J. Heyd, E. Brothers, 
 K. N. Kudin, V. N. Staroverov, R. Kobayashi, J. Normand, 
 K. Raghavachari, A. Rendell, J. C. Burant, S. S. Iyengar, J. Tomasi, 
 M. Cossi, N. Rega, J. M. Millam, M. Klene, J. E. Knox, J. B. Cross, 
 V. Bakken, C. Adamo, J. Jaramillo, R. Gomperts, R. E. Stratmann, 
 O. Yazyev, A. J. Austin, R. Cammi, C. Pomelli, J. W. Ochterski, 
 R. L. Martin, K. Morokuma, V. G. Zakrzewski, G. A. Voth, 
 P. Salvador, J. J. Dannenberg, S. Dapprich, A. D. Daniels, 
 O. Farkas, J. B. Foresman, J. V. Ortiz, J. Cioslowski, 
 and D. J. Fox, Gaussian, Inc., Wallingford CT, 2009.
 
 ******************************************
 Gaussian 09:  AM64L-G09RevA.02 11-Jun-2009
                27-Mar-2019 
 ******************************************
 %NProcShared=8
 Will use up to    8 processors via shared memory.
 %Chk=gdb_214_chk
 ----------------------------------------------------------------------
 #T MP2/6-311G(d) geom=check guess=read output=wfn density=current pop=
 npa
 ----------------------------------------------------------------------
 -------
 gdb_214
 -------
 Redundant internal coordinates taken from checkpoint file:
 gdb_214_chk.chk
 Charge =  0 Multiplicity = 1
 C,0,-0.0311663642,1.386209437,0.0104384708
 C,0,1.1706719447,2.1020517676,0.0023125561
 C,0,2.3914753777,1.4191190313,-0.0131738845
 C,0,2.4105138761,0.0203862519,-0.0205545932
 C,0,1.2086837378,-0.6954532393,-0.0124285914
 C,0,-0.0121249541,-0.0125176199,0.0030592522
 H,0,-0.9758445884,1.9145304277,0.0224264236
 H,0,1.1560312776,3.1843814583,0.0080162301
 H,0,3.3214358713,1.9730575943,-0.0194616062
 H,0,3.3551991233,-0.5079244496,-0.0325424786
 H,0,1.223309991,-1.7777825261,-0.0181322157
 H,0,-0.9420852926,-0.5664581331,0.0093404368
 Recover connectivity data from disk.
                    Distance matrix (angstroms):
                    1          2          3          4          5
     1  C    0.000000
     2  C    1.398897   0.000000
     3  C    2.422980   1.398927   0.000000
     4  C    2.797898   2.423027   1.398882   0.000000
     5  C    2.423029   2.797802   2.422893   1.398888   0.000000
     6  C    1.398876   2.422893   2.797703   2.422977   1.398933
     7  H    1.082443   2.154786   3.403754   3.880342   3.403732
     8  H    2.154731   1.082444   2.154744   3.403735   3.880246
     9  H    3.403708   2.154739   1.082457   2.154694   3.403634
    10  H    3.880343   3.403726   2.154678   1.082445   2.154785
    11  H    3.403729   3.880245   3.403647   2.154732   1.082443
    12  H    2.154689   3.403636   3.880161   3.403704   2.154744
                    6          7          8          9         10
     6  C    0.000000
     7  H    2.154680   0.000000
     8  H    3.403642   2.481456   0.000000
     9  H    3.880160   4.297883   2.481338   0.000000
    10  H    3.403758   4.962786   4.297803   2.481246   0.000000
    11  H    2.154741   4.297802   4.962689   4.297783   2.481471
    12  H    1.082458   2.481253   4.297778   4.962619   4.297887
                   11         12
    11  H    0.000000
    12  H    2.481330   0.000000
 Framework group  C1[X(C6H6)]
 Deg. of freedom    30
                         Standard orientation:                         
 ---------------------------------------------------------------------
 Center     Atomic      Atomic             Coordinates (Angstroms)
 Number     Number       Type             X           Y           Z
 ---------------------------------------------------------------------
      1          6           0        1.394101   -0.116378   -0.000003
      2          6           0        0.797836    1.149079    0.000003
      3          6           0       -0.596246    1.265416   -0.000004
      4          6           0       -1.394100    0.116373    0.000003
      5          6           0       -0.797840   -1.149076   -0.000003
      6          6           0        0.596248   -1.265414    0.000003
      7          1           0        2.472784   -0.206520   -0.000003
      8          1           0        1.415134    2.038251    0.000004
      9          1           0       -1.057607    2.244630    0.000001
     10          1           0       -2.472783    0.206528    0.000003
     11          1           0       -1.415126   -2.038256   -0.000004
     12          1           0        1.057607   -2.244630    0.000005
 ---------------------------------------------------------------------
 Rotational constants (GHZ):      5.6745752      5.6739633      2.8371346
   126 basis functions,   222 primitive gaussians,   132 cartesian basis functions
    21 alpha electrons       21 beta electrons
       nuclear repulsion energy       203.0337825604 Hartrees.
 NAtoms=   12 NActive=   12 NUniq=   12 SFac= 7.50D-01 NAtFMM=   80 NAOKFM=F Big=F
 Initial guess read from the checkpoint file:  gdb_214_chk.chk
 B after Tr=     0.000000    0.000000    0.000000
         Rot=    1.000000    0.000000    0.000000    0.000000 Ang=   0.00 deg.
 Initial guess orbital symmetries:
       Occupied  (A) (A) (A) (A) (A) (A) (A) (A) (A) (A) (A) (A)
                 (A) (A) (A) (A) (A) (A) (A) (A) (A)
       Virtual   (A) (A) (A) (A) (A) (A) (A) (A) (A) (A) (A) (A)
                 (A) (A) (A) (A) (A) (A) (A) (A) (A) (A) (A) (A)
                 (A) (A) (A) (A) (A) (A) (A) (A) (A) (A) (A) (A)
                 (A) (A) (A) (A) (A) (A) (A) (A) (A) (A) (A) (A)
                 (A) (A) (A) (A) (A) (A) (A) (A) (A) (A) (A) (A)
                 (A) (A) (A) (A) (A) (A) (A) (A) (A) (A) (A) (A)
                 (A) (A) (A) (A) (A) (A) (A) (A) (A) (A) (A) (A)
                 (A) (A) (A) (A) (A) (A) (A) (A) (A) (A) (A) (A)
                 (A) (A) (A) (A) (A) (A) (A) (A) (A)
 SCF Done:  E(RHF) =  -230.741853109     A.U. after    9 cycles
             Convg  =    0.1403D-08             -V/T =  2.0012
 ExpMin= 1.03D-01 ExpMax= 4.56D+03 ExpMxC= 6.82D+02 IAcc=1 IRadAn=         1 AccDes= 0.00D+00
 HarFok:  IExCor=  205 AccDes= 0.00D+00 IRadAn=         1 IDoV=-2
 ScaDFX=  1.000000  1.000000  1.000000  1.000000
 NROrb=    120 NOA=    15 NOB=    15 NVA=   105 NVB=   105

 **** Warning!!: The largest alpha MO coefficient is  0.17583204D+02

 ANorm=    0.1138972641D+01
 E2 =    -0.7923531945D+00 EUMP2 =    -0.23153420630382D+03
          Electric field/nuclear overlap derivatives assumed to be zero.
 End of Minotr Frequency-dependent properties file   721 does not exist.
 End of Minotr Frequency-dependent properties file   722 does not exist.

 **********************************************************************

            Population analysis using the MP2 density.

 **********************************************************************

 Orbital symmetries:
       Occupied  (A) (A) (A) (A) (A) (A) (A) (A) (A) (A) (A) (A)
                 (A) (A) (A) (A) (A) (A) (A) (A) (A)
       Virtual   (A) (A) (A) (A) (A) (A) (A) (A) (A) (A) (A) (A)
                 (A) (A) (A) (A) (A) (A) (A) (A) (A) (A) (A) (A)
                 (A) (A) (A) (A) (A) (A) (A) (A) (A) (A) (A) (A)
                 (A) (A) (A) (A) (A) (A) (A) (A) (A) (A) (A) (A)
                 (A) (A) (A) (A) (A) (A) (A) (A) (A) (A) (A) (A)
                 (A) (A) (A) (A) (A) (A) (A) (A) (A) (A) (A) (A)
                 (A) (A) (A) (A) (A) (A) (A) (A) (A) (A) (A) (A)
                 (A) (A) (A) (A) (A) (A) (A) (A) (A) (A) (A) (A)
                 (A) (A) (A) (A) (A) (A) (A) (A) (A)
 The electronic state is 1-A.
     Natural Orbital Coefficients:
                           1         2         3         4         5
     Eigenvalues --     2.00000   2.00000   2.00000   2.00000   2.00000
   1 1   C  1S          0.22926  -0.23027   0.32450  -0.00818   0.32371
   2        2S          0.18945  -0.19091   0.26853  -0.00677   0.26828
   3        2PX        -0.00034   0.00009  -0.00003   0.00004   0.00000
   4        2PY         0.00003  -0.00001   0.00001   0.00043   0.00001
   5        2PZ         0.00000   0.00000   0.00000   0.00000   0.00000
   6        3S          0.00458  -0.00141   0.00450  -0.00011   0.00239
   7        3PX        -0.00048   0.00052  -0.00014   0.00003  -0.00042
   8        3PY         0.00004  -0.00004   0.00002   0.00029   0.00002
   9        3PZ         0.00000   0.00000   0.00000   0.00000   0.00000
  10        4S          0.00081   0.00279   0.00054  -0.00001  -0.00102
  11        4PX        -0.00009  -0.00109   0.00017   0.00000   0.00036
  12        4PY         0.00001   0.00009  -0.00001   0.00002  -0.00002
  13        4PZ         0.00000   0.00000   0.00000   0.00000   0.00000
  14        5D 0       -0.00024   0.00022  -0.00027   0.00001  -0.00029
  15        5D+1        0.00000   0.00000   0.00000   0.00000   0.00000
  16        5D-1        0.00000   0.00000   0.00000   0.00000   0.00000
  17        5D+2       -0.00003   0.00011  -0.00008  -0.00001  -0.00012
  18        5D-2        0.00000  -0.00002   0.00001  -0.00005   0.00002
  19 2   C  1S          0.22925   0.23005   0.16958   0.27697  -0.13449
  20        2S          0.18943   0.19073   0.14033   0.22919  -0.11146
  21        2PX        -0.00020  -0.00005   0.00029  -0.00020   0.00010
  22        2PY        -0.00028  -0.00007  -0.00022   0.00010  -0.00007
  23        2PZ         0.00000   0.00000   0.00000   0.00000   0.00000
  24        3S          0.00458   0.00141   0.00235   0.00384  -0.00099
  25        3PX        -0.00028  -0.00030   0.00016  -0.00020   0.00000
  26        3PY        -0.00040  -0.00043  -0.00021  -0.00001   0.00021
  27        3PZ         0.00000   0.00000   0.00000   0.00000   0.00000
  28        4S          0.00081  -0.00279   0.00028   0.00046   0.00042
  29        4PX        -0.00005   0.00062   0.00007   0.00007  -0.00004
  30        4PY        -0.00007   0.00090   0.00006   0.00013  -0.00016
  31        4PZ         0.00000   0.00000   0.00000   0.00000   0.00000
  32        5D 0       -0.00024  -0.00022  -0.00014  -0.00023   0.00012
  33        5D+1        0.00000   0.00000   0.00000   0.00000   0.00000
  34        5D-1        0.00000   0.00000   0.00000   0.00000   0.00000
  35        5D+2        0.00001   0.00004  -0.00002   0.00005  -0.00001
  36        5D-2       -0.00003  -0.00011  -0.00005  -0.00005   0.00005
  37 3   C  1S          0.22925  -0.22993  -0.15531   0.28531  -0.18925
  38        2S          0.18943  -0.19063  -0.12852   0.23610  -0.15684
  39        2PX         0.00015  -0.00004   0.00033   0.00020  -0.00010
  40        2PY        -0.00031   0.00008   0.00018   0.00006  -0.00004
  41        2PZ         0.00000   0.00000   0.00000   0.00000   0.00000
  42        3S          0.00458  -0.00141  -0.00215   0.00395  -0.00140
  43        3PX         0.00021  -0.00022   0.00020   0.00018  -0.00001
  44        3PY        -0.00044   0.00047   0.00017  -0.00006   0.00026
  45        3PZ         0.00000   0.00000   0.00000   0.00000   0.00000
  46        4S          0.00081   0.00279  -0.00026   0.00047   0.00060
  47        4PX         0.00004   0.00047   0.00006  -0.00005   0.00004
  48        4PY        -0.00008  -0.00099  -0.00007   0.00014  -0.00021
  49        4PZ         0.00000   0.00000   0.00000   0.00000   0.00000
  50        5D 0       -0.00024   0.00022   0.00013  -0.00023   0.00017
  51        5D+1        0.00000   0.00000   0.00000   0.00000   0.00000
  52        5D-1        0.00000   0.00000   0.00000   0.00000   0.00000
  53        5D+2        0.00002  -0.00007   0.00001   0.00006  -0.00004
  54        5D-2        0.00002  -0.00009  -0.00006   0.00004  -0.00006
  55 4   C  1S          0.22926   0.23027  -0.32450   0.00819   0.32371
  56        2S          0.18945   0.19091  -0.26853   0.00677   0.26828
  57        2PX         0.00034   0.00009  -0.00003   0.00004   0.00000
  58        2PY        -0.00003  -0.00001   0.00001   0.00043  -0.00001
  59        2PZ         0.00000   0.00000   0.00000   0.00000   0.00000
  60        3S          0.00458   0.00141  -0.00450   0.00011   0.00239
  61        3PX         0.00048   0.00052  -0.00014   0.00003   0.00042
  62        3PY        -0.00004  -0.00004   0.00002   0.00029  -0.00002
  63        3PZ         0.00000   0.00000   0.00000   0.00000   0.00000
  64        4S          0.00081  -0.00279  -0.00054   0.00001  -0.00102
  65        4PX         0.00009  -0.00109   0.00017   0.00000  -0.00036
  66        4PY        -0.00001   0.00009  -0.00001   0.00002   0.00002
  67        4PZ         0.00000   0.00000   0.00000   0.00000   0.00000
  68        5D 0       -0.00024  -0.00022   0.00027  -0.00001  -0.00029
  69        5D+1        0.00000   0.00000   0.00000   0.00000   0.00000
  70        5D-1        0.00000   0.00000   0.00000   0.00000   0.00000
  71        5D+2       -0.00003  -0.00011   0.00008   0.00001  -0.00012
  72        5D-2        0.00000   0.00002  -0.00001   0.00005   0.00002
  73 5   C  1S          0.22925  -0.23005  -0.16958  -0.27697  -0.13449
  74        2S          0.18943  -0.19072  -0.14033  -0.22920  -0.11146
  75        2PX         0.00020  -0.00005   0.00029  -0.00020  -0.00010
  76        2PY         0.00028  -0.00007  -0.00022   0.00010   0.00007
  77        2PZ         0.00000   0.00000   0.00000   0.00000   0.00000
  78        3S          0.00458  -0.00141  -0.00235  -0.00384  -0.00099
  79        3PX         0.00028  -0.00030   0.00016  -0.00020   0.00000
  80        3PY         0.00040  -0.00043  -0.00021  -0.00001  -0.00021
  81        3PZ         0.00000   0.00000   0.00000   0.00000   0.00000
  82        4S          0.00081   0.00279  -0.00028  -0.00046   0.00042
  83        4PX         0.00005   0.00062   0.00007   0.00007   0.00004
  84        4PY         0.00007   0.00090   0.00006   0.00013   0.00016
  85        4PZ         0.00000   0.00000   0.00000   0.00000   0.00000
  86        5D 0       -0.00024   0.00022   0.00014   0.00023   0.00012
  87        5D+1        0.00000   0.00000   0.00000   0.00000   0.00000
  88        5D-1        0.00000   0.00000   0.00000   0.00000   0.00000
  89        5D+2        0.00001  -0.00004   0.00002  -0.00005  -0.00001
  90        5D-2       -0.00003   0.00011   0.00005   0.00005   0.00005
  91 6   C  1S          0.22925   0.22993   0.15531  -0.28530  -0.18924
  92        2S          0.18943   0.19063   0.12852  -0.23609  -0.15684
  93        2PX        -0.00015  -0.00004   0.00033   0.00020   0.00010
  94        2PY         0.00031   0.00008   0.00018   0.00006   0.00004
  95        2PZ         0.00000   0.00000   0.00000   0.00000   0.00000
  96        3S          0.00458   0.00141   0.00215  -0.00395  -0.00140
  97        3PX        -0.00021  -0.00022   0.00020   0.00018   0.00001
  98        3PY         0.00044   0.00047   0.00017  -0.00006  -0.00026
  99        3PZ         0.00000   0.00000   0.00000   0.00000   0.00000
 100        4S          0.00081  -0.00279   0.00026  -0.00047   0.00060
 101        4PX        -0.00004   0.00047   0.00006  -0.00005  -0.00004
 102        4PY         0.00008  -0.00099  -0.00007   0.00014   0.00021
 103        4PZ         0.00000   0.00000   0.00000   0.00000   0.00000
 104        5D 0       -0.00024  -0.00022  -0.00013   0.00023   0.00017
 105        5D+1        0.00000   0.00000   0.00000   0.00000   0.00000
 106        5D-1        0.00000   0.00000   0.00000   0.00000   0.00000
 107        5D+2        0.00002   0.00007  -0.00001  -0.00006  -0.00004
 108        5D-2        0.00002   0.00009   0.00006  -0.00004  -0.00006
 109 7   H  1S          0.00043   0.00014   0.00052  -0.00001   0.00005
 110        2S          0.00019   0.00061   0.00012   0.00000  -0.00039
 111        3S          0.00013   0.00030   0.00016   0.00000  -0.00006
 112 8   H  1S          0.00043  -0.00014   0.00027   0.00044  -0.00002
 113        2S          0.00019  -0.00061   0.00006   0.00010   0.00016
 114        3S          0.00013  -0.00030   0.00008   0.00013   0.00003
 115 9   H  1S          0.00043   0.00014  -0.00025   0.00046  -0.00003
 116        2S          0.00019   0.00061  -0.00006   0.00011   0.00023
 117        3S          0.00013   0.00030  -0.00007   0.00014   0.00004
 118 10  H  1S          0.00043  -0.00014  -0.00052   0.00001   0.00005
 119        2S          0.00019  -0.00061  -0.00012   0.00000  -0.00039
 120        3S          0.00013  -0.00030  -0.00016   0.00000  -0.00006
 121 11  H  1S          0.00043   0.00014  -0.00027  -0.00044  -0.00002
 122        2S          0.00019   0.00061  -0.00006  -0.00010   0.00016
 123        3S          0.00013   0.00030  -0.00008  -0.00013   0.00003
 124 12  H  1S          0.00043  -0.00014   0.00025  -0.00046  -0.00003
 125        2S          0.00019  -0.00061   0.00006  -0.00011   0.00023
 126        3S          0.00013  -0.00030   0.00007  -0.00014   0.00004
                           6         7         8         9        10
     Eigenvalues --     2.00000   1.98471   1.98101   1.98101   1.97503
   1 1   C  1S         -0.03161  -0.05184   0.06383  -0.00299   0.03845
   2        2S         -0.02620  -0.08345   0.10423  -0.00489   0.06463
   3        2PX         0.00001  -0.00836  -0.02650   0.00410  -0.05095
   4        2PY         0.00013   0.00070   0.00383   0.03399   0.02305
   5        2PZ         0.00000   0.00000   0.00000   0.00000   0.00000
   6        3S         -0.00023   0.20960  -0.26570   0.01246  -0.17132
   7        3PX         0.00003  -0.00845  -0.05678   0.00807  -0.09340
   8        3PY        -0.00013   0.00070   0.00780   0.06439   0.04097
   9        3PZ         0.00000   0.00000   0.00000   0.00000   0.00000
  10        4S          0.00010   0.09942  -0.14055   0.00659  -0.13355
[...]
  70        5D-1        0.00000   0.00000   0.00000   0.00000   0.00000
  71        5D+2       -0.01718   0.06296   0.02862  -0.03921  -0.08621
  72        5D-2        0.00289   0.01755   0.21579   0.07852  -0.03213
  73 5   C  1S         -0.81880  -0.45011   1.07463   0.51492  -1.00897
  74        2S          0.87934   0.49617  -1.18462  -0.57153   1.11991
  75        2PX        -0.01539   0.08928   0.02428  -0.04357   0.00125
  76        2PY        -0.02216  -0.05200  -0.04068   0.00995   0.03891
  77        2PZ         0.00000   0.00000   0.00000   0.00000   0.00000
  78        3S         -0.22895  -0.18831   0.44960   0.20662  -0.40488
  79        3PX         0.04271  -0.37473  -0.07627   0.16517   0.02929
  80        3PY         0.06150   0.19877   0.19957  -0.06709  -0.11359
  81        3PZ         0.00000   0.00000   0.00000   0.00000   0.00000
  82        4S          0.24944   0.13029  -0.30898  -0.04610   0.08985
  83        4PX        -0.05312   0.09980   0.04032   0.13512  -0.32317
  84        4PY        -0.07656  -0.06755  -0.03041   0.24497  -0.43989
  85        4PZ         0.00000   0.00000   0.00000   0.00000   0.00000
  86        5D 0       -0.01534   0.01435  -0.03433  -0.04212   0.08255
  87        5D+1        0.00000   0.00000   0.00000   0.00000   0.00000
  88        5D-1        0.00000   0.00000   0.00000   0.00000   0.00000
  89        5D+2        0.00610  -0.19754  -0.06015   0.08558   0.00643
  90        5D-2       -0.01632  -0.04911  -0.08117  -0.01415   0.09270
  91 6   C  1S         -0.81881   0.70551   0.92718  -1.13129   0.05857
  92        2S          0.87935  -0.77771  -1.02208   1.25568  -0.06501
  93        2PX         0.01150   0.08586  -0.05398  -0.01342   0.04286
  94        2PY        -0.02440   0.02626  -0.04410   0.03417   0.01810
  95        2PZ         0.00000   0.00000   0.00000   0.00000   0.00000
  96        3S         -0.22894   0.29516   0.38791  -0.45398   0.02348
  97        3PX        -0.03193  -0.36242   0.20592   0.02738  -0.17834
  98        3PY         0.06773  -0.08339   0.21189  -0.08207  -0.07915
  99        3PZ         0.00000   0.00000   0.00000   0.00000   0.00000
 100        4S          0.24929  -0.20369  -0.26623   0.10107  -0.00509
 101        4PX         0.03980   0.09484  -0.07092   0.26208   0.01556
 102        4PY        -0.08443   0.04262  -0.03509  -0.55234   0.04252
 103        4PZ         0.00000   0.00000   0.00000   0.00000   0.00000
 104        5D 0       -0.01533  -0.02251  -0.02963   0.09255  -0.00479
 105        5D+1        0.00000   0.00000   0.00000   0.00000   0.00000
 106        5D-1        0.00000   0.00000   0.00000   0.00000   0.00000
 107        5D+2        0.01110   0.15755  -0.07216  -0.05700   0.06819
 108        5D-2        0.01343  -0.08324   0.12118  -0.07597  -0.04993
 109 7   H  1S          0.00510   0.06308  -0.00805   0.05850   0.09022
 110        2S          0.04112  -0.11563   0.01475  -0.05940  -0.09161
 111        3S         -0.18164   0.16619  -0.02119   0.32410   0.49984
 112 8   H  1S          0.00511   0.02457  -0.05866   0.04887  -0.09578
 113        2S          0.04108  -0.04513   0.10761  -0.04963   0.09726
 114        3S         -0.18163   0.06446  -0.15432   0.27078  -0.53066
 115 9   H  1S          0.00511  -0.03851  -0.05062  -0.10738   0.00556
 116        2S          0.04107   0.07071   0.09283   0.10904  -0.00565
 117        3S         -0.18165  -0.10114  -0.13319  -0.59480   0.03085
 118 10  H  1S          0.00510  -0.06308   0.00806   0.05850   0.09022
 119        2S          0.04111   0.11563  -0.01475  -0.05939  -0.09160
 120        3S         -0.18165  -0.16618   0.02121   0.32410   0.49987
 121 11  H  1S          0.00511  -0.02457   0.05866   0.04887  -0.09578
 122        2S          0.04109   0.04514  -0.10760  -0.04963   0.09723
 123        3S         -0.18162  -0.06447   0.15432   0.27077  -0.53069
 124 12  H  1S          0.00511   0.03851   0.05062  -0.10738   0.00556
 125        2S          0.04106  -0.07071  -0.09282   0.10905  -0.00563
 126        3S         -0.18166   0.10115   0.13318  -0.59479   0.03088
                         126
     Eigenvalues --     0.00000
   1 1   C  1S          0.79553
   2        2S         -0.89085
   3        2PX         0.04234
   4        2PY        -0.00353
   5        2PZ         0.00000
   6        3S          0.55543
   7        3PX        -0.11881
   8        3PY         0.00989
   9        3PZ         0.00000
  10        4S         -6.39133
  11        4PX         4.14543
  12        4PY        -0.34646
  13        4PZ        -0.00002
  14        5D 0       -0.01262
  15        5D+1        0.00001
  16        5D-1        0.00000
  17        5D+2       -0.05178
  18        5D-2        0.00872
  19 2   C  1S         -0.79565
  20        2S          0.89097
  21        2PX        -0.02425
  22        2PY        -0.03490
  23        2PZ         0.00000
  24        3S         -0.55546
  25        3PX         0.06804
  26        3PY         0.09790
  27        3PZ         0.00001
  28        4S          6.39141
  29        4PX        -2.37204
  30        4PY        -3.41697
  31        4PZ        -0.00002
  32        5D 0        0.01262
  33        5D+1        0.00000
  34        5D-1        0.00001
  35        5D+2       -0.01836
  36        5D-2        0.04919
  37 3   C  1S          0.79568
  38        2S         -0.89101
  39        2PX        -0.01812
  40        2PY         0.03844
  41        2PZ         0.00000
  42        3S          0.55545
  43        3PX         0.05084
  44        3PY        -0.10788
  45        3PZ         0.00000
  46        4S         -6.39100
  47        4PX        -1.77289
  48        4PY         3.76269
  49        4PZ        -0.00002
  50        5D 0       -0.01264
  51        5D+1        0.00000
  52        5D-1        0.00001
  53        5D+2        0.03344
  54        5D-2        0.04050
  55 4   C  1S         -0.79557
  56        2S          0.89089
  57        2PX         0.04235
  58        2PY        -0.00354
  59        2PZ         0.00000
  60        3S         -0.55545
  61        3PX        -0.11881
  62        3PY         0.00992
  63        3PZ         0.00000
  64        4S          6.39141
  65        4PX         4.14542
  66        4PY        -0.34655
  67        4PZ        -0.00002
  68        5D 0        0.01263
  69        5D+1       -0.00001
  70        5D-1        0.00000
  71        5D+2        0.05179
  72        5D-2       -0.00871
  73 5   C  1S          0.79569
  74        2S         -0.89102
  75        2PX        -0.02424
  76        2PY        -0.03490
  77        2PZ         0.00000
  78        3S          0.55548
  79        3PX         0.06803
  80        3PY         0.09792
  81        3PZ         0.00000
  82        4S         -6.39147
  83        4PX        -2.37197
  84        4PY        -3.41703
  85        4PZ        -0.00002
  86        5D 0       -0.01263
  87        5D+1        0.00000
  88        5D-1       -0.00001
  89        5D+2        0.01835
  90        5D-2       -0.04919
  91 6   C  1S         -0.79567
  92        2S          0.89100
  93        2PX        -0.01812
  94        2PY         0.03844
  95        2PZ         0.00000
  96        3S         -0.55545
  97        3PX         0.05083
  98        3PY        -0.10788
  99        3PZ         0.00001
 100        4S          6.39100
 101        4PX        -1.77283
 102        4PY         3.76271
 103        4PZ        -0.00002
 104        5D 0        0.01264
 105        5D+1        0.00000
 106        5D-1       -0.00001
 107        5D+2       -0.03343
 108        5D-2       -0.04050
 109 7   H  1S          0.08407
 110        2S         -0.58036
 111        3S         -0.92891
 112 8   H  1S         -0.08406
 113        2S          0.58029
 114        3S          0.92878
 115 9   H  1S          0.08405
 116        2S         -0.58023
 117        3S         -0.92876
 118 10  H  1S         -0.08407
 119        2S          0.58036
 120        3S          0.92889
 121 11  H  1S          0.08407
 122        2S         -0.58030
 123        3S         -0.92877
 124 12  H  1S         -0.08405
 125        2S          0.58023
 126        3S          0.92876
          Condensed to atoms (all electrons):
 Mulliken atomic charges:
              1
     1  C   -0.209102
     2  C   -0.209119
     3  C   -0.209127
     4  C   -0.209102
     5  C   -0.209118
     6  C   -0.209128
     7  H    0.209122
     8  H    0.209118
     9  H    0.209108
    10  H    0.209121
    11  H    0.209119
    12  H    0.209108
 Sum of Mulliken atomic charges =   0.00000
 Mulliken charges with hydrogens summed into heavy atoms:
              1
     1  C    0.000020
     2  C   -0.000001
     3  C   -0.000019
     4  C    0.000020
     5  C    0.000000
     6  C   -0.000020
 Sum of Mulliken charges with hydrogens summed into heavy atoms =   0.00000
 Electronic spatial extent (au):  <R**2>=            460.7777
 Charge=              0.0000 electrons
 Dipole moment (field-independent basis, Debye):
    X=              0.0000    Y=              0.0000    Z=              0.0000  Tot=              0.0000
 ******************************Gaussian NBO Version 3.1******************************
             N A T U R A L   A T O M I C   O R B I T A L   A N D
          N A T U R A L   B O N D   O R B I T A L   A N A L Y S I S
 ******************************Gaussian NBO Version 3.1******************************
       /RESON  / : Allow strongly delocalized NBO set

 Analyzing the MP2 density

 Job title: gdb_214                                                         

 Storage needed:     48216 in NPA (  33553616 available)


 NATURAL POPULATIONS:  Natural atomic orbital occupancies 
                                                          
   NAO  Atom  No  lang   Type(AO)    Occupancy
 --------------------------------------------
     1    C    1  S      Cor( 1S)     1.99892
     2    C    1  S      Val( 2S)     0.95303
     3    C    1  S      Ryd( 3S)     0.00562
     4    C    1  S      Ryd( 4S)     0.00005
     5    C    1  px     Val( 2p)     1.15444
     6    C    1  px     Ryd( 3p)     0.00988
     7    C    1  px     Ryd( 4p)     0.00040
     8    C    1  py     Val( 2p)     1.05149
     9    C    1  py     Ryd( 3p)     0.00719
    10    C    1  py     Ryd( 4p)     0.00046
    11    C    1  pz     Val( 2p)     0.98901
    12    C    1  pz     Ryd( 3p)     0.00534
    13    C    1  pz     Ryd( 4p)     0.00038
    14    C    1  dxy    Ryd( 3d)     0.00375
    15    C    1  dxz    Ryd( 3d)     0.00444
    16    C    1  dyz    Ryd( 3d)     0.00430
    17    C    1  dx2y2  Ryd( 3d)     0.00477
    18    C    1  dz2    Ryd( 3d)     0.00364

    19    C    2  S      Cor( 1S)     1.99892
    20    C    2  S      Val( 2S)     0.95304
    21    C    2  S      Ryd( 3S)     0.00562
    22    C    2  S      Ryd( 4S)     0.00005
    23    C    2  px     Val( 2p)     1.08471
    24    C    2  px     Ryd( 3p)     0.00806
    25    C    2  px     Ryd( 4p)     0.00044
    26    C    2  py     Val( 2p)     1.12120
    27    C    2  py     Ryd( 3p)     0.00901
    28    C    2  py     Ryd( 4p)     0.00042
    29    C    2  pz     Val( 2p)     0.98902
    30    C    2  pz     Ryd( 3p)     0.00534
    31    C    2  pz     Ryd( 4p)     0.00038
    32    C    2  dxy    Ryd( 3d)     0.00466
    33    C    2  dxz    Ryd( 3d)     0.00434
    34    C    2  dyz    Ryd( 3d)     0.00439
    35    C    2  dx2y2  Ryd( 3d)     0.00385
    36    C    2  dz2    Ryd( 3d)     0.00364

    37    C    3  S      Cor( 1S)     1.99892
    38    C    3  S      Val( 2S)     0.95304
    39    C    3  S      Ryd( 3S)     0.00562
    40    C    3  S      Ryd( 4S)     0.00005
    41    C    3  px     Val( 2p)     1.06972
    42    C    3  px     Ryd( 3p)     0.00767
    43    C    3  px     Ryd( 4p)     0.00045
    44    C    3  py     Val( 2p)     1.13619
    45    C    3  py     Ryd( 3p)     0.00940
    46    C    3  py     Ryd( 4p)     0.00041
    47    C    3  pz     Val( 2p)     0.98902
    48    C    3  pz     Ryd( 3p)     0.00534
    49    C    3  pz     Ryd( 4p)     0.00038
    50    C    3  dxy    Ryd( 3d)     0.00436
    51    C    3  dxz    Ryd( 3d)     0.00432
    52    C    3  dyz    Ryd( 3d)     0.00441
    53    C    3  dx2y2  Ryd( 3d)     0.00416
    54    C    3  dz2    Ryd( 3d)     0.00364

    55    C    4  S      Cor( 1S)     1.99892
    56    C    4  S      Val( 2S)     0.95303
    57    C    4  S      Ryd( 3S)     0.00562
    58    C    4  S      Ryd( 4S)     0.00005
    59    C    4  px     Val( 2p)     1.15444
    60    C    4  px     Ryd( 3p)     0.00988
    61    C    4  px     Ryd( 4p)     0.00040
    62    C    4  py     Val( 2p)     1.05149
    63    C    4  py     Ryd( 3p)     0.00719
    64    C    4  py     Ryd( 4p)     0.00046
    65    C    4  pz     Val( 2p)     0.98901
    66    C    4  pz     Ryd( 3p)     0.00534
    67    C    4  pz     Ryd( 4p)     0.00038
    68    C    4  dxy    Ryd( 3d)     0.00375
    69    C    4  dxz    Ryd( 3d)     0.00444
    70    C    4  dyz    Ryd( 3d)     0.00430
    71    C    4  dx2y2  Ryd( 3d)     0.00477
    72    C    4  dz2    Ryd( 3d)     0.00364

    73    C    5  S      Cor( 1S)     1.99892
    74    C    5  S      Val( 2S)     0.95304
    75    C    5  S      Ryd( 3S)     0.00562
    76    C    5  S      Ryd( 4S)     0.00005
    77    C    5  px     Val( 2p)     1.08471
    78    C    5  px     Ryd( 3p)     0.00806
    79    C    5  px     Ryd( 4p)     0.00044
    80    C    5  py     Val( 2p)     1.12120
    81    C    5  py     Ryd( 3p)     0.00901
    82    C    5  py     Ryd( 4p)     0.00042
    83    C    5  pz     Val( 2p)     0.98902
    84    C    5  pz     Ryd( 3p)     0.00534
    85    C    5  pz     Ryd( 4p)     0.00038
    86    C    5  dxy    Ryd( 3d)     0.00466
    87    C    5  dxz    Ryd( 3d)     0.00434
    88    C    5  dyz    Ryd( 3d)     0.00439
    89    C    5  dx2y2  Ryd( 3d)     0.00385
    90    C    5  dz2    Ryd( 3d)     0.00364

    91    C    6  S      Cor( 1S)     1.99892
    92    C    6  S      Val( 2S)     0.95304
    93    C    6  S      Ryd( 3S)     0.00562
    94    C    6  S      Ryd( 4S)     0.00005
    95    C    6  px     Val( 2p)     1.06972
    96    C    6  px     Ryd( 3p)     0.00767
    97    C    6  px     Ryd( 4p)     0.00045
    98    C    6  py     Val( 2p)     1.13619
    99    C    6  py     Ryd( 3p)     0.00940
   100    C    6  py     Ryd( 4p)     0.00041
   101    C    6  pz     Val( 2p)     0.98902
   102    C    6  pz     Ryd( 3p)     0.00534
   103    C    6  pz     Ryd( 4p)     0.00038
   104    C    6  dxy    Ryd( 3d)     0.00436
   105    C    6  dxz    Ryd( 3d)     0.00432
   106    C    6  dyz    Ryd( 3d)     0.00441
   107    C    6  dx2y2  Ryd( 3d)     0.00416
   108    C    6  dz2    Ryd( 3d)     0.00364

   109    H    7  S      Val( 1S)     0.79924
   110    H    7  S      Ryd( 2S)     0.00287
   111    H    7  S      Ryd( 3S)     0.00078

   112    H    8  S      Val( 1S)     0.79924
   113    H    8  S      Ryd( 2S)     0.00287
   114    H    8  S      Ryd( 3S)     0.00078

   115    H    9  S      Val( 1S)     0.79925
   116    H    9  S      Ryd( 2S)     0.00287
   117    H    9  S      Ryd( 3S)     0.00078

   118    H   10  S      Val( 1S)     0.79924
   119    H   10  S      Ryd( 2S)     0.00287
   120    H   10  S      Ryd( 3S)     0.00078

   121    H   11  S      Val( 1S)     0.79924
   122    H   11  S      Ryd( 2S)     0.00287
   123    H   11  S      Ryd( 3S)     0.00078

   124    H   12  S      Val( 1S)     0.79925
   125    H   12  S      Ryd( 2S)     0.00287
   126    H   12  S      Ryd( 3S)     0.00078

 WARNING:  1 low occupancy (<1.9990e) core orbital  found on  C    1
           1 low occupancy (<1.9990e) core orbital  found on  C    2
           1 low occupancy (<1.9990e) core orbital  found on  C    3
           1 low occupancy (<1.9990e) core orbital  found on  C    4
           1 low occupancy (<1.9990e) core orbital  found on  C    5
           1 low occupancy (<1.9990e) core orbital  found on  C    6


 Summary of Natural Population Analysis:                  
                                                          
                                       Natural Population 
                Natural  -----------------------------------------------
    Atom  No    Charge         Core      Valence    Rydberg      Total
 -----------------------------------------------------------------------
      C    1   -0.19711      1.99892     4.14798    0.05022     6.19711
      C    2   -0.19710      1.99892     4.14796    0.05021     6.19710
      C    3   -0.19710      1.99892     4.14797    0.05022     6.19710
      C    4   -0.19711      1.99892     4.14798    0.05022     6.19711
      C    5   -0.19710      1.99892     4.14796    0.05021     6.19710
      C    6   -0.19710      1.99892     4.14797    0.05022     6.19710
      H    7    0.19711      0.00000     0.79924    0.00365     0.80289
      H    8    0.19710      0.00000     0.79924    0.00365     0.80290
      H    9    0.19710      0.00000     0.79925    0.00365     0.80290
      H   10    0.19711      0.00000     0.79924    0.00365     0.80289
      H   11    0.19710      0.00000     0.79924    0.00365     0.80290
      H   12    0.19710      0.00000     0.79925    0.00365     0.80290
 =======================================================================
   * Total *    0.00000     11.99352    29.68327    0.32321    42.00000

                                 Natural Population      
 --------------------------------------------------------
   Core                      11.99352 ( 99.9460% of  12)
   Valence                   29.68327 ( 98.9442% of  30)
   Natural Minimal Basis     41.67679 ( 99.2305% of  42)
   Natural Rydberg Basis      0.32321 (  0.7695% of  42)
 --------------------------------------------------------

    Atom  No          Natural Electron Configuration
 ----------------------------------------------------------------------------
      C    1      [core]2S( 0.95)2p( 3.19)3S( 0.01)3p( 0.02)3d( 0.02)
      C    2      [core]2S( 0.95)2p( 3.19)3S( 0.01)3p( 0.02)3d( 0.02)
      C    3      [core]2S( 0.95)2p( 3.19)3S( 0.01)3p( 0.02)3d( 0.02)
      C    4      [core]2S( 0.95)2p( 3.19)3S( 0.01)3p( 0.02)3d( 0.02)
      C    5      [core]2S( 0.95)2p( 3.19)3S( 0.01)3p( 0.02)3d( 0.02)
      C    6      [core]2S( 0.95)2p( 3.19)3S( 0.01)3p( 0.02)3d( 0.02)
      H    7            1S( 0.80)
      H    8            1S( 0.80)
      H    9            1S( 0.80)
      H   10            1S( 0.80)
      H   11            1S( 0.80)
      H   12            1S( 0.80)


 NBO analysis skipped by request.
 1\1\GINC-ATENEA\SP\RMP2-FC\6-311G(d)\C6H6\BCZ\27-Mar-2019\0\\#T MP2/6-
 311G(d) geom=check guess=read output=wfn density=current pop=npa\\gdb_
 214\\0,1\C,0,-0.0311663642,1.386209437,0.0104384708\C,0,1.1706719447,2
 .1020517676,0.0023125561\C,0,2.3914753777,1.4191190313,-0.0131738845\C
 ,0,2.4105138761,0.0203862519,-0.0205545932\C,0,1.2086837378,-0.6954532
 393,-0.0124285914\C,0,-0.0121249541,-0.0125176199,0.0030592522\H,0,-0.
 9758445884,1.9145304277,0.0224264236\H,0,1.1560312776,3.1843814583,0.0
 080162301\H,0,3.3214358713,1.9730575943,-0.0194616062\H,0,3.3551991233
 ,-0.5079244496,-0.0325424786\H,0,1.223309991,-1.7777825261,-0.01813221
 57\H,0,-0.9420852926,-0.5664581331,0.0093404368\\Version=AM64L-G09RevA
 .02\State=1-A\HF=-230.7418531\MP2=-231.5342063\RMSD=1.403e-09\Dipole=-
 0.0000011,0.0000014,-0.0000018\Quadrupole=2.1245748,2.1243905,-4.24896
 53,0.0000148,-0.062578,0.0327444\PG=C01 [X(C6H6)]\\@

 Writing a WFN file to gdb_214.wfn.


 THE MEEK SHALL INHERIT THE EARTH.
 (THE REST OF US WILL ESCAPE TO THE STARS)
 Job cpu time:  0 days  0 hours  6 minutes 53.2 seconds.
 File lengths (MBytes):  RWF=     14 Int=      0 D2E=      0 Chk=      2 Scr=      1
 Normal termination of Gaussian 09 at Wed Mar 27 15:14:33 2019.
